 vasp.5.4.1 24Jun15 (build Sep 20 2023 02:35:02) complex                        
  
 executed on           IFC91_ompi date 2024.04.11  23:33:13
 running on   24 total cores
 distrk:  each k-point on   24 cores,    1 groups
 distr:  one band on NCORES_PER_BAND=  12 cores,    2 groups


--------------------------------------------------------------------------------------------------------


 INCAR:
 POTCAR:    PAW_PBE Mg 13Apr2007                  
 POTCAR:    PAW_PBE B 06Sep2000                   

 ----------------------------------------------------------------------------- 
|                                                                             |
|           W    W    AA    RRRRR   N    N  II  N    N   GGGG   !!!           |
|           W    W   A  A   R    R  NN   N  II  NN   N  G    G  !!!           |
|           W    W  A    A  R    R  N N  N  II  N N  N  G       !!!           |
|           W WW W  AAAAAA  RRRRR   N  N N  II  N  N N  G  GGG   !            |
|           WW  WW  A    A  R   R   N   NN  II  N   NN  G    G                |
|           W    W  A    A  R    R  N    N  II  N    N   GGGG   !!!           |
|                                                                             |
|      For optimal performance we recommend to set                            |
|        NCORE= 4 - approx SQRT( number of cores)                             |
|      NCORE specifies how many cores store one orbital (NPAR=cpu/NCORE).     |
|      This setting can  greatly improve the performance of VASP for DFT.     |
|      The default, NPAR=number of cores might be grossly inefficient         |
|      on modern multi-core architectures or massively parallel machines.     |
|      Do your own testing !!!!                                               |
|      Unfortunately you need to use the default for GW and RPA calculations. |
|      (for HF NCORE is supported but not extensively tested yet)             |
|                                                                             |
 ----------------------------------------------------------------------------- 

 POTCAR:    PAW_PBE Mg 13Apr2007                  
   VRHFIN =Mg: s2p0                                                             
   LEXCH  = PE                                                                  
   EATOM  =    23.0369 eV,    1.6932 Ry                                         
                                                                                
   TITEL  = PAW_PBE Mg 13Apr2007                                                
   LULTRA =        F    use ultrasoft PP ?                                      
   IUNSCR =        1    unscreen: 0-lin 1-nonlin 2-no                           
   RPACOR =    1.500    partial core radius                                     
   POMASS =   24.305; ZVAL   =    2.000    mass and valenz                      
   RCORE  =    2.000    outmost cutoff radius                                   
   RWIGS  =    2.880; RWIGS  =    1.524    wigner-seitz radius (au A)           
   ENMAX  =  126.143; ENMIN  =   94.607 eV                                      
   RCLOC  =    1.506    cutoff for local pot                                    
   LCOR   =        T    correct aug charges                                     
   LPAW   =        T    paw PP                                                  
   EAUG   =  454.734                                                            
   DEXC   =    0.000                                                            
   RMAX   =    2.045    core radius for proj-oper                               
   RAUG   =    1.300    factor for augmentation sphere                          
   RDEP   =    2.025    radius for radial grids                                 
   RDEPT  =    1.942    core radius for aug-charge                              
                                                                                
   Atomic configuration                                                         
    6 entries                                                                   
     n  l   j            E        occ.                                          
     1  0  0.50     -1259.6230   2.0000                                         
     2  0  0.50       -79.8442   2.0000                                         
     2  1  1.50       -46.6121   6.0000                                         
     3  0  0.50        -4.7055   2.0000                                         
     3  1  0.50        -1.3660   0.0000                                         
     3  2  1.50        -1.3606   0.0000                                         
   Description                                                                  
     l       E           TYP  RCUT    TYP  RCUT                                 
     0     -4.7054661     23  2.000                                             
     0     27.2116520     23  2.000                                             
     1      1.3605826     23  2.000                                             
     1     27.2116520     23  2.000                                             
     2     -1.3605826     23  2.000                                             
  local pseudopotential read in
  partial core-charges read in
  partial kinetic energy density read in
  atomic valenz-charges read in
  non local Contribution for L=           0  read in
    real space projection operators read in
  non local Contribution for L=           0  read in
    real space projection operators read in
  non local Contribution for L=           1  read in
    real space projection operators read in
  non local Contribution for L=           1  read in
    real space projection operators read in
  non local Contribution for L=           2  read in
    real space projection operators read in
    PAW grid and wavefunctions read in
 
   number of l-projection  operators is LMAX  =           5
   number of lm-projection operators is LMMAX =          13
 
 POTCAR:    PAW_PBE B 06Sep2000                   
   VRHFIN =B: s2p1                                                              
   LEXCH  = PE                                                                  
   EATOM  =    71.1703 eV,    5.2309 Ry                                         
                                                                                
   TITEL  = PAW_PBE B 06Sep2000                                                 
   LULTRA =        F    use ultrasoft PP ?                                      
   IUNSCR =        1    unscreen: 0-lin 1-nonlin 2-no                           
   RPACOR =    1.200    partial core radius                                     
   POMASS =   10.811; ZVAL   =    3.000    mass and valenz                      
   RCORE  =    1.700    outmost cutoff radius                                   
   RWIGS  =    1.710; RWIGS  =    0.905    wigner-seitz radius (au A)           
   ENMAX  =  318.614; ENMIN  =  238.960 eV                                      
   ICORE  =        2    local potential                                         
   LCOR   =        T    correct aug charges                                     
   LPAW   =        T    paw PP                                                  
   EAUG   =  535.514                                                            
   DEXC   =    0.000                                                            
   RMAX   =    1.732    core radius for proj-oper                               
   RAUG   =    1.300    factor for augmentation sphere                          
   RDEP   =    1.757    radius for radial grids                                 
   RDEPT  =    1.436    core radius for aug-charge                              
                                                                                
   Atomic configuration                                                         
    4 entries                                                                   
     n  l   j            E        occ.                                          
     1  0  0.50      -180.5896   2.0000                                         
     2  0  0.50        -9.4431   2.0000                                         
     2  1  0.50        -3.6068   1.0000                                         
     3  2  1.50        -4.0817   0.0000                                         
   Description                                                                  
     l       E           TYP  RCUT    TYP  RCUT                                 
     0     -9.4430752     23  1.500                                             
     0      0.8675899     23  1.500                                             
     1     -3.6067955     23  1.700                                             
     1      6.1086146     23  1.700                                             
     2     -4.0817478      7  1.700                                             
  local pseudopotential read in
  partial core-charges read in
  partial kinetic energy density read in
  atomic valenz-charges read in
  non local Contribution for L=           0  read in
    real space projection operators read in
  non local Contribution for L=           0  read in
    real space projection operators read in
  non local Contribution for L=           1  read in
    real space projection operators read in
  non local Contribution for L=           1  read in
    real space projection operators read in
    PAW grid and wavefunctions read in
 
   number of l-projection  operators is LMAX  =           4
   number of lm-projection operators is LMMAX =           8
 
  PAW_PBE Mg 13Apr2007                  :
 energy of atom  1       EATOM=  -23.0369
 kinetic energy error for atom=    0.0000 (will be added to EATOM!!)
  PAW_PBE B 06Sep2000                   :
 energy of atom  2       EATOM=  -71.1703
 kinetic energy error for atom=    0.0007 (will be added to EATOM!!)
 
 
 POSCAR: Mg1 B2                                  
  positions in direct lattice
  No initial velocities read in
 exchange correlation table for  LEXCH =        8
   RHO(1)=    0.500       N(1)  =     2000
   RHO(2)=  100.500       N(2)  =     4000
 


--------------------------------------------------------------------------------------------------------


 ion  position               nearest neighbor table
   1  0.000  0.000  0.000-   2 2.50   2 2.50   3 2.50   3 2.50   2 2.50   2 2.50   3 2.50   3 2.50
                             2 2.50   3 2.50   2 2.50   3 2.50
   2  0.667  0.333  0.500-   3 1.77   3 1.77   3 1.77   1 2.50   1 2.50   1 2.50   1 2.50   1 2.50
                             1 2.50
   3  0.333  0.667  0.500-   2 1.77   2 1.77   2 1.77   1 2.50   1 2.50   1 2.50   1 2.50   1 2.50
                             1 2.50
 
  LATTYP: Found a hexagonal cell.
 ALAT       =     3.0627620649
 C/A-ratio  =     1.1495736219
  
  Lattice vectors:
  
 A1 = (   1.5313810324,  -2.6524297539,   0.0000000000)
 A2 = (   1.5313810324,   2.6524297539,   0.0000000000)
 A3 = (   0.0000000000,   0.0000000000,   3.5208704800)


Analysis of symmetry for initial positions (statically):
=====================================================================
 Subroutine PRICEL returns:
 Original cell was already a primitive cell.
 

 Routine SETGRP: Setting up the symmetry group for a 
 hexagonal supercell.


 Subroutine GETGRP returns: Found 24 space group operations
 (whereof 24 operations were pure point group operations)
 out of a pool of 24 trial point group operations.


The static configuration has the point symmetry D_6h.


Analysis of symmetry for dynamics (positions and initial velocities):
=====================================================================
 Subroutine PRICEL returns:
 Original cell was already a primitive cell.
 

 Routine SETGRP: Setting up the symmetry group for a 
 hexagonal supercell.


 Subroutine GETGRP returns: Found 24 space group operations
 (whereof 24 operations were pure point group operations)
 out of a pool of 24 trial point group operations.


The dynamic configuration has the point symmetry D_6h.
 
 
 KPOINTS: KPOINTS automatic                       

Automatic generation of k-mesh.
Space group operators:
 irot       det(A)        alpha          n_x          n_y          n_z        tau_x        tau_y        tau_z
    1     1.000000     0.000000     1.000000     0.000000     0.000000     0.000000     0.000000     0.000000
    2    -1.000000     0.000000     1.000000     0.000000     0.000000     0.000000     0.000000     0.000000
    3     1.000000    60.000000     0.000000     0.000000    -1.000000     0.000000     0.000000     0.000000
    4    -1.000000    60.000000     0.000000     0.000000    -1.000000     0.000000     0.000000     0.000000
    5     1.000000   120.000000     0.000000     0.000000    -1.000000     0.000000     0.000000     0.000000
    6    -1.000000   120.000000     0.000000     0.000000    -1.000000     0.000000     0.000000     0.000000
    7     1.000000   180.000000     0.000000     0.000000     1.000000     0.000000     0.000000     0.000000
    8    -1.000000   180.000000     0.000000     0.000000     1.000000     0.000000     0.000000     0.000000
    9     1.000000   120.000000     0.000000     0.000000     1.000000     0.000000     0.000000     0.000000
   10    -1.000000   120.000000     0.000000     0.000000     1.000000     0.000000     0.000000     0.000000
   11     1.000000    60.000000     0.000000     0.000000     1.000000     0.000000     0.000000     0.000000
   12    -1.000000    60.000000     0.000000     0.000000     1.000000     0.000000     0.000000     0.000000
   13     1.000000   180.000000     0.500000    -0.866025     0.000000     0.000000     0.000000     0.000000
   14    -1.000000   180.000000     0.500000    -0.866025     0.000000     0.000000     0.000000     0.000000
   15     1.000000   180.000000     0.000000     1.000000     0.000000     0.000000     0.000000     0.000000
   16    -1.000000   180.000000     0.000000     1.000000     0.000000     0.000000     0.000000     0.000000
   17     1.000000   180.000000    -0.500000    -0.866025     0.000000     0.000000     0.000000     0.000000
   18    -1.000000   180.000000    -0.500000    -0.866025     0.000000     0.000000     0.000000     0.000000
   19     1.000000   180.000000     0.866025     0.500000     0.000000     0.000000     0.000000     0.000000
   20    -1.000000   180.000000     0.866025     0.500000     0.000000     0.000000     0.000000     0.000000
   21     1.000000   180.000000     1.000000     0.000000     0.000000     0.000000     0.000000     0.000000
   22    -1.000000   180.000000     1.000000     0.000000     0.000000     0.000000     0.000000     0.000000
   23     1.000000   180.000000     0.866025    -0.500000     0.000000     0.000000     0.000000     0.000000
   24    -1.000000   180.000000     0.866025    -0.500000     0.000000     0.000000     0.000000     0.000000
 
 Subroutine IBZKPT returns following result:
 ===========================================
 
 Found    162 irreducible k-points:
 
 Following reciprocal coordinates:
            Coordinates               Weight
  0.000000  0.000000  0.000000      1.000000
  0.066667  0.000000  0.000000      6.000000
  0.133333  0.000000  0.000000      6.000000
  0.200000  0.000000  0.000000      6.000000
  0.266667  0.000000  0.000000      6.000000
  0.333333  0.000000  0.000000      6.000000
  0.400000  0.000000  0.000000      6.000000
  0.466667  0.000000  0.000000      6.000000
  0.066667  0.066667  0.000000      6.000000
  0.133333  0.066667  0.000000     12.000000
  0.200000  0.066667  0.000000     12.000000
  0.266667  0.066667  0.000000     12.000000
  0.333333  0.066667  0.000000     12.000000
  0.400000  0.066667  0.000000     12.000000
  0.466667  0.066667  0.000000      6.000000
  0.133333  0.133333  0.000000      6.000000
  0.200000  0.133333  0.000000     12.000000
  0.266667  0.133333  0.000000     12.000000
  0.333333  0.133333  0.000000     12.000000
  0.400000  0.133333  0.000000     12.000000
  0.200000  0.200000  0.000000      6.000000
  0.266667  0.200000  0.000000     12.000000
  0.333333  0.200000  0.000000     12.000000
  0.400000  0.200000  0.000000      6.000000
  0.266667  0.266667  0.000000      6.000000
  0.333333  0.266667  0.000000     12.000000
  0.333333  0.333333  0.000000      2.000000
  0.000000  0.000000  0.090909      2.000000
  0.066667  0.000000  0.090909     12.000000
  0.133333  0.000000  0.090909     12.000000
  0.200000  0.000000  0.090909     12.000000
  0.266667  0.000000  0.090909     12.000000
  0.333333  0.000000  0.090909     12.000000
  0.400000  0.000000  0.090909     12.000000
  0.466667  0.000000  0.090909     12.000000
  0.066667  0.066667  0.090909     12.000000
  0.133333  0.066667  0.090909     24.000000
  0.200000  0.066667  0.090909     24.000000
  0.266667  0.066667  0.090909     24.000000
  0.333333  0.066667  0.090909     24.000000
  0.400000  0.066667  0.090909     24.000000
  0.466667  0.066667  0.090909     12.000000
  0.133333  0.133333  0.090909     12.000000
  0.200000  0.133333  0.090909     24.000000
  0.266667  0.133333  0.090909     24.000000
  0.333333  0.133333  0.090909     24.000000
  0.400000  0.133333  0.090909     24.000000
  0.200000  0.200000  0.090909     12.000000
  0.266667  0.200000  0.090909     24.000000
  0.333333  0.200000  0.090909     24.000000
  0.400000  0.200000  0.090909     12.000000
  0.266667  0.266667  0.090909     12.000000
  0.333333  0.266667  0.090909     24.000000
  0.333333  0.333333  0.090909      4.000000
  0.000000  0.000000  0.181818      2.000000
  0.066667  0.000000  0.181818     12.000000
  0.133333  0.000000  0.181818     12.000000
  0.200000  0.000000  0.181818     12.000000
  0.266667  0.000000  0.181818     12.000000
  0.333333  0.000000  0.181818     12.000000
  0.400000  0.000000  0.181818     12.000000
  0.466667  0.000000  0.181818     12.000000
  0.066667  0.066667  0.181818     12.000000
  0.133333  0.066667  0.181818     24.000000
  0.200000  0.066667  0.181818     24.000000
  0.266667  0.066667  0.181818     24.000000
  0.333333  0.066667  0.181818     24.000000
  0.400000  0.066667  0.181818     24.000000
  0.466667  0.066667  0.181818     12.000000
  0.133333  0.133333  0.181818     12.000000
  0.200000  0.133333  0.181818     24.000000
  0.266667  0.133333  0.181818     24.000000
  0.333333  0.133333  0.181818     24.000000
  0.400000  0.133333  0.181818     24.000000
  0.200000  0.200000  0.181818     12.000000
  0.266667  0.200000  0.181818     24.000000
  0.333333  0.200000  0.181818     24.000000
  0.400000  0.200000  0.181818     12.000000
  0.266667  0.266667  0.181818     12.000000
  0.333333  0.266667  0.181818     24.000000
  0.333333  0.333333  0.181818      4.000000
  0.000000  0.000000  0.272727      2.000000
  0.066667  0.000000  0.272727     12.000000
  0.133333  0.000000  0.272727     12.000000
  0.200000  0.000000  0.272727     12.000000
  0.266667  0.000000  0.272727     12.000000
  0.333333  0.000000  0.272727     12.000000
  0.400000  0.000000  0.272727     12.000000
  0.466667  0.000000  0.272727     12.000000
  0.066667  0.066667  0.272727     12.000000
  0.133333  0.066667  0.272727     24.000000
  0.200000  0.066667  0.272727     24.000000
  0.266667  0.066667  0.272727     24.000000
  0.333333  0.066667  0.272727     24.000000
  0.400000  0.066667  0.272727     24.000000
  0.466667  0.066667  0.272727     12.000000
  0.133333  0.133333  0.272727     12.000000
  0.200000  0.133333  0.272727     24.000000
  0.266667  0.133333  0.272727     24.000000
  0.333333  0.133333  0.272727     24.000000
  0.400000  0.133333  0.272727     24.000000
  0.200000  0.200000  0.272727     12.000000
  0.266667  0.200000  0.272727     24.000000
  0.333333  0.200000  0.272727     24.000000
  0.400000  0.200000  0.272727     12.000000
  0.266667  0.266667  0.272727     12.000000
  0.333333  0.266667  0.272727     24.000000
  0.333333  0.333333  0.272727      4.000000
  0.000000  0.000000  0.363636      2.000000
  0.066667  0.000000  0.363636     12.000000
  0.133333  0.000000  0.363636     12.000000
  0.200000  0.000000  0.363636     12.000000
  0.266667  0.000000  0.363636     12.000000
  0.333333  0.000000  0.363636     12.000000
  0.400000  0.000000  0.363636     12.000000
  0.466667  0.000000  0.363636     12.000000
  0.066667  0.066667  0.363636     12.000000
  0.133333  0.066667  0.363636     24.000000
  0.200000  0.066667  0.363636     24.000000
  0.266667  0.066667  0.363636     24.000000
  0.333333  0.066667  0.363636     24.000000
  0.400000  0.066667  0.363636     24.000000
  0.466667  0.066667  0.363636     12.000000
  0.133333  0.133333  0.363636     12.000000
  0.200000  0.133333  0.363636     24.000000
  0.266667  0.133333  0.363636     24.000000
  0.333333  0.133333  0.363636     24.000000
  0.400000  0.133333  0.363636     24.000000
  0.200000  0.200000  0.363636     12.000000
  0.266667  0.200000  0.363636     24.000000
  0.333333  0.200000  0.363636     24.000000
  0.400000  0.200000  0.363636     12.000000
  0.266667  0.266667  0.363636     12.000000
  0.333333  0.266667  0.363636     24.000000
  0.333333  0.333333  0.363636      4.000000
  0.000000  0.000000  0.454545      2.000000
  0.066667  0.000000  0.454545     12.000000
  0.133333  0.000000  0.454545     12.000000
  0.200000  0.000000  0.454545     12.000000
  0.266667  0.000000  0.454545     12.000000
  0.333333  0.000000  0.454545     12.000000
  0.400000  0.000000  0.454545     12.000000
  0.466667  0.000000  0.454545     12.000000
  0.066667  0.066667  0.454545     12.000000
  0.133333  0.066667  0.454545     24.000000
  0.200000  0.066667  0.454545     24.000000
  0.266667  0.066667  0.454545     24.000000
  0.333333  0.066667  0.454545     24.000000
  0.400000  0.066667  0.454545     24.000000
  0.466667  0.066667  0.454545     12.000000
  0.133333  0.133333  0.454545     12.000000
  0.200000  0.133333  0.454545     24.000000
  0.266667  0.133333  0.454545     24.000000
  0.333333  0.133333  0.454545     24.000000
  0.400000  0.133333  0.454545     24.000000
  0.200000  0.200000  0.454545     12.000000
  0.266667  0.200000  0.454545     24.000000
  0.333333  0.200000  0.454545     24.000000
  0.400000  0.200000  0.454545     12.000000
  0.266667  0.266667  0.454545     12.000000
  0.333333  0.266667  0.454545     24.000000
  0.333333  0.333333  0.454545      4.000000
 
 Following cartesian coordinates:
            Coordinates               Weight
  0.000000  0.000000  0.000000      1.000000
  0.021767 -0.012567  0.000000      6.000000
  0.043534 -0.025134  0.000000      6.000000
  0.065301 -0.037701  0.000000      6.000000
  0.087067 -0.050268  0.000000      6.000000
  0.108834 -0.062835  0.000000      6.000000
  0.130601 -0.075403  0.000000      6.000000
  0.152368 -0.087970  0.000000      6.000000
  0.043534  0.000000  0.000000      6.000000
  0.065301 -0.012567  0.000000     12.000000
  0.087067 -0.025134  0.000000     12.000000
  0.108834 -0.037701  0.000000     12.000000
  0.130601 -0.050268  0.000000     12.000000
  0.152368 -0.062835  0.000000     12.000000
  0.174135 -0.075403  0.000000      6.000000
  0.087067  0.000000  0.000000      6.000000
  0.108834 -0.012567  0.000000     12.000000
  0.130601 -0.025134  0.000000     12.000000
  0.152368 -0.037701  0.000000     12.000000
  0.174135 -0.050268  0.000000     12.000000
  0.130601  0.000000  0.000000      6.000000
  0.152368 -0.012567  0.000000     12.000000
  0.174135 -0.025134  0.000000     12.000000
  0.195902 -0.037701  0.000000      6.000000
  0.174135  0.000000  0.000000      6.000000
  0.195902 -0.012567  0.000000     12.000000
  0.217668  0.000000  0.000000      2.000000
  0.000000  0.000000  0.025820      2.000000
  0.021767 -0.012567  0.025820     12.000000
  0.043534 -0.025134  0.025820     12.000000
  0.065301 -0.037701  0.025820     12.000000
  0.087067 -0.050268  0.025820     12.000000
  0.108834 -0.062835  0.025820     12.000000
  0.130601 -0.075403  0.025820     12.000000
  0.152368 -0.087970  0.025820     12.000000
  0.043534  0.000000  0.025820     12.000000
  0.065301 -0.012567  0.025820     24.000000
  0.087067 -0.025134  0.025820     24.000000
  0.108834 -0.037701  0.025820     24.000000
  0.130601 -0.050268  0.025820     24.000000
  0.152368 -0.062835  0.025820     24.000000
  0.174135 -0.075403  0.025820     12.000000
  0.087067  0.000000  0.025820     12.000000
  0.108834 -0.012567  0.025820     24.000000
  0.130601 -0.025134  0.025820     24.000000
  0.152368 -0.037701  0.025820     24.000000
  0.174135 -0.050268  0.025820     24.000000
  0.130601  0.000000  0.025820     12.000000
  0.152368 -0.012567  0.025820     24.000000
  0.174135 -0.025134  0.025820     24.000000
  0.195902 -0.037701  0.025820     12.000000
  0.174135  0.000000  0.025820     12.000000
  0.195902 -0.012567  0.025820     24.000000
  0.217668  0.000000  0.025820      4.000000
  0.000000  0.000000  0.051640      2.000000
  0.021767 -0.012567  0.051640     12.000000
  0.043534 -0.025134  0.051640     12.000000
  0.065301 -0.037701  0.051640     12.000000
  0.087067 -0.050268  0.051640     12.000000
  0.108834 -0.062835  0.051640     12.000000
  0.130601 -0.075403  0.051640     12.000000
  0.152368 -0.087970  0.051640     12.000000
  0.043534  0.000000  0.051640     12.000000
  0.065301 -0.012567  0.051640     24.000000
  0.087067 -0.025134  0.051640     24.000000
  0.108834 -0.037701  0.051640     24.000000
  0.130601 -0.050268  0.051640     24.000000
  0.152368 -0.062835  0.051640     24.000000
  0.174135 -0.075403  0.051640     12.000000
  0.087067  0.000000  0.051640     12.000000
  0.108834 -0.012567  0.051640     24.000000
  0.130601 -0.025134  0.051640     24.000000
  0.152368 -0.037701  0.051640     24.000000
  0.174135 -0.050268  0.051640     24.000000
  0.130601  0.000000  0.051640     12.000000
  0.152368 -0.012567  0.051640     24.000000
  0.174135 -0.025134  0.051640     24.000000
  0.195902 -0.037701  0.051640     12.000000
  0.174135  0.000000  0.051640     12.000000
  0.195902 -0.012567  0.051640     24.000000
  0.217668  0.000000  0.051640      4.000000
  0.000000  0.000000  0.077460      2.000000
  0.021767 -0.012567  0.077460     12.000000
  0.043534 -0.025134  0.077460     12.000000
  0.065301 -0.037701  0.077460     12.000000
  0.087067 -0.050268  0.077460     12.000000
  0.108834 -0.062835  0.077460     12.000000
  0.130601 -0.075403  0.077460     12.000000
  0.152368 -0.087970  0.077460     12.000000
  0.043534  0.000000  0.077460     12.000000
  0.065301 -0.012567  0.077460     24.000000
  0.087067 -0.025134  0.077460     24.000000
  0.108834 -0.037701  0.077460     24.000000
  0.130601 -0.050268  0.077460     24.000000
  0.152368 -0.062835  0.077460     24.000000
  0.174135 -0.075403  0.077460     12.000000
  0.087067  0.000000  0.077460     12.000000
  0.108834 -0.012567  0.077460     24.000000
  0.130601 -0.025134  0.077460     24.000000
  0.152368 -0.037701  0.077460     24.000000
  0.174135 -0.050268  0.077460     24.000000
  0.130601  0.000000  0.077460     12.000000
  0.152368 -0.012567  0.077460     24.000000
  0.174135 -0.025134  0.077460     24.000000
  0.195902 -0.037701  0.077460     12.000000
  0.174135  0.000000  0.077460     12.000000
  0.195902 -0.012567  0.077460     24.000000
  0.217668  0.000000  0.077460      4.000000
  0.000000  0.000000  0.103280      2.000000
  0.021767 -0.012567  0.103280     12.000000
  0.043534 -0.025134  0.103280     12.000000
  0.065301 -0.037701  0.103280     12.000000
  0.087067 -0.050268  0.103280     12.000000
  0.108834 -0.062835  0.103280     12.000000
  0.130601 -0.075403  0.103280     12.000000
  0.152368 -0.087970  0.103280     12.000000
  0.043534  0.000000  0.103280     12.000000
  0.065301 -0.012567  0.103280     24.000000
  0.087067 -0.025134  0.103280     24.000000
  0.108834 -0.037701  0.103280     24.000000
  0.130601 -0.050268  0.103280     24.000000
  0.152368 -0.062835  0.103280     24.000000
  0.174135 -0.075403  0.103280     12.000000
  0.087067  0.000000  0.103280     12.000000
  0.108834 -0.012567  0.103280     24.000000
  0.130601 -0.025134  0.103280     24.000000
  0.152368 -0.037701  0.103280     24.000000
  0.174135 -0.050268  0.103280     24.000000
  0.130601  0.000000  0.103280     12.000000
  0.152368 -0.012567  0.103280     24.000000
  0.174135 -0.025134  0.103280     24.000000
  0.195902 -0.037701  0.103280     12.000000
  0.174135  0.000000  0.103280     12.000000
  0.195902 -0.012567  0.103280     24.000000
  0.217668  0.000000  0.103280      4.000000
  0.000000  0.000000  0.129100      2.000000
  0.021767 -0.012567  0.129100     12.000000
  0.043534 -0.025134  0.129100     12.000000
  0.065301 -0.037701  0.129100     12.000000
  0.087067 -0.050268  0.129100     12.000000
  0.108834 -0.062835  0.129100     12.000000
  0.130601 -0.075403  0.129100     12.000000
  0.152368 -0.087970  0.129100     12.000000
  0.043534  0.000000  0.129100     12.000000
  0.065301 -0.012567  0.129100     24.000000
  0.087067 -0.025134  0.129100     24.000000
  0.108834 -0.037701  0.129100     24.000000
  0.130601 -0.050268  0.129100     24.000000
  0.152368 -0.062835  0.129100     24.000000
  0.174135 -0.075403  0.129100     12.000000
  0.087067  0.000000  0.129100     12.000000
  0.108834 -0.012567  0.129100     24.000000
  0.130601 -0.025134  0.129100     24.000000
  0.152368 -0.037701  0.129100     24.000000
  0.174135 -0.050268  0.129100     24.000000
  0.130601  0.000000  0.129100     12.000000
  0.152368 -0.012567  0.129100     24.000000
  0.174135 -0.025134  0.129100     24.000000
  0.195902 -0.037701  0.129100     12.000000
  0.174135  0.000000  0.129100     12.000000
  0.195902 -0.012567  0.129100     24.000000
  0.217668  0.000000  0.129100      4.000000
 


--------------------------------------------------------------------------------------------------------




 Dimension of arrays:
   k-points           NKPTS =    162   k-points in BZ     NKDIM =    162   number of bands    NBANDS=      8
   number of dos      NEDOS =    301   number of ions     NIONS =      3
   non local maximal  LDIM  =      5   non local SUM 2l+1 LMDIM =     13
   total plane-waves  NPLWV =  16128
   max r-space proj   IRMAX =      1   max aug-charges    IRDMAX=  24150
   dimension x,y,z NGX =    24 NGY =   24 NGZ =   28
   dimension x,y,z NGXF=    48 NGYF=   48 NGZF=   56
   support grid    NGXF=    48 NGYF=   48 NGZF=   56
   ions per type =               1   2
 NGX,Y,Z   is equivalent  to a cutoff of  13.03, 13.03, 13.22 a.u.
 NGXF,Y,Z  is equivalent  to a cutoff of  26.05, 26.05, 26.44 a.u.


 I would recommend the setting:
   dimension x,y,z NGX =    24 NGY =   24 NGZ =   28
 SYSTEM =  unknown system                          
 POSCAR =  Mg1 B2                                  

 Startparameter for this run:
   NWRITE =      2    write-flag & timer
   PREC   = accura    normal or accurate (medium, high low for compatibility)
   ISTART =      0    job   : 0-new  1-cont  2-samecut
   ICHARG =      2    charge: 1-file 2-atom 10-const
   ISPIN  =      1    spin polarized calculation?
   LNONCOLLINEAR =      F non collinear calculations
   LSORBIT =      F    spin-orbit coupling
   INIWAV =      1    electr: 0-lowe 1-rand  2-diag
   LASPH  =      F    aspherical Exc in radial PAW
   METAGGA=      F    non-selfconsistent MetaGGA calc.

 Electronic Relaxation 1
   ENCUT  =  600.0 eV  44.10 Ry    6.64 a.u.   6.12  6.12  7.03*2*pi/ulx,y,z
   ENINI  =  600.0     initial cutoff
   ENAUG  =  800.0 eV  augmentation charge cutoff
   NELM   =    300;   NELMIN=  2; NELMDL=  0     # of ELM steps 
   EDIFF  = 0.1E-05   stopping-criterion for ELM
   LREAL  =      F    real-space projection
   NLSPLINE    = F    spline interpolate recip. space projectors
   LCOMPAT=      F    compatible to vasp.4.4
   GGA_COMPAT  = T    GGA compatible to vasp.4.4-vasp.4.6
   LMAXPAW     = -100 max onsite density
   LMAXMIX     =    2 max onsite mixed and CHGCAR
   VOSKOWN=      0    Vosko Wilk Nusair interpolation
   ROPT   =    0.00000   0.00000
 Ionic relaxation
   EDIFFG = -.1E-01   stopping-criterion for IOM
   NSW    =    200    number of steps for IOM
   NBLOCK =      1;   KBLOCK =    200    inner block; outer block 
   IBRION =      2    ionic relax: 0-MD 1-quasi-New 2-CG
   NFREE  =      1    steps in history (QN), initial steepest desc. (CG)
   ISIF   =      3    stress and relaxation
   IWAVPR =     11    prediction:  0-non 1-charg 2-wave 3-comb
   ISYM   =      2    0-nonsym 1-usesym 2-fastsym
   LCORR  =      T    Harris-Foulkes like correction to forces

   POTIM  = 0.5000    time-step for ionic-motion
   TEIN   =    0.0    initial temperature
   TEBEG  =    0.0;   TEEND  =   0.0 temperature during run
   SMASS  =  -3.00    Nose mass-parameter (am)
   estimated Nose-frequenzy (Omega)   =  0.10E-29 period in steps =****** mass=  -0.214E-27a.u.
   SCALEE = 1.0000    scale energy and forces
   NPACO  =    256;   APACO  = 16.0  distance and # of slots for P.C.
   PSTRESS=    0.0 pullay stress

  Mass of Ions in am
   POMASS =  24.30 10.81
  Ionic Valenz
   ZVAL   =   2.00  3.00
  Atomic Wigner-Seitz radii
   RWIGS  =  -1.00 -1.00
  virtual crystal weights 
   VCA    =   1.00  1.00
   NELECT =       8.0000    total number of electrons
   NUPDOWN=      -1.0000    fix difference up-down

 DOS related values:
   EMIN   =  10.00;   EMAX   =-10.00  energy-range for DOS
   EFERMI =   0.00
   ISMEAR =     0;   SIGMA  =   0.05  broadening in eV -4-tet -1-fermi 0-gaus

 Electronic relaxation 2 (details)
   IALGO  =     38    algorithm
   LDIAG  =      T    sub-space diagonalisation (order eigenvalues)
   LSUBROT=      F    optimize rotation matrix (better conditioning)
   TURBO    =      0    0=normal 1=particle mesh
   IRESTART =      0    0=no restart 2=restart with 2 vectors
   NREBOOT  =      0    no. of reboots
   NMIN     =      0    reboot dimension
   EREF     =   0.00    reference energy to select bands
   IMIX   =      4    mixing-type and parameters
     AMIX     =   0.40;   BMIX     =  1.00
     AMIX_MAG =   1.60;   BMIX_MAG =  1.00
     AMIN     =   0.10
     WC   =   100.;   INIMIX=   1;  MIXPRE=   1;  MAXMIX= -45

 Intra band minimization:
   WEIMIN = 0.0010     energy-eigenvalue tresh-hold
   EBREAK =  0.31E-07  absolut break condition
   DEPER  =   0.30     relativ break condition  

   TIME   =   0.40     timestep for ELM

  volume/ion in A,a.u.               =       9.53        64.34
  Fermi-wavevector in a.u.,A,eV,Ry     =   1.070621  2.023180 15.595397  1.146229
  Thomas-Fermi vector in A             =   2.206337
 
 Write flags
   LWAVE  =      F    write WAVECAR
   LCHARG =      F    write CHGCAR
   LVTOT  =      F    write LOCPOT, total local potential
   LVHAR  =      F    write LOCPOT, Hartree potential only
   LELF   =      F    write electronic localiz. function (ELF)
   LORBIT =      0    0 simple, 1 ext, 2 COOP (PROOUT)


 Dipole corrections
   LMONO  =      F    monopole corrections only (constant potential shift)
   LDIPOL =      F    correct potential (dipole corrections)
   IDIPOL =      0    1-x, 2-y, 3-z, 4-all directions 
   EPSILON=  1.0000000 bulk dielectric constant

 Exchange correlation treatment:
   GGA     =    PE    GGA type
   LEXCH   =     8    internal setting for exchange type
   VOSKOWN=      0    Vosko Wilk Nusair interpolation
   LHFCALC =     F    Hartree Fock is set to
   LHFONE  =     F    Hartree Fock one center treatment
   AEXX    =    0.0000 exact exchange contribution

 Linear response parameters
   LEPSILON=     F    determine dielectric tensor
   LRPA    =     F    only Hartree local field effects (RPA)
   LNABLA  =     F    use nabla operator in PAW spheres
   LVEL    =     F    velocity operator in full k-point grid
   LINTERFAST=   F  fast interpolation
   KINTER  =     0    interpolate to denser k-point grid
   CSHIFT  =0.1000    complex shift for real part using Kramers Kronig
   OMEGAMAX=  -1.0    maximum frequency
   DEG_THRESHOLD= 0.2000000E-02 threshold for treating states as degnerate
   RTIME   =    0.100 relaxation time in fs

 Orbital magnetization related:
   ORBITALMAG=     F  switch on orbital magnetization
   LCHIMAG   =     F  perturbation theory with respect to B field
   DQ        =  0.001000  dq finite difference perturbation B field



--------------------------------------------------------------------------------------------------------


 conjugate gradient relaxation of ions
 charge density and potential will be updated during run
 non-spin polarized calculation
 Variant of blocked Davidson
 Davidson routine will perform the subspace rotation
 perform sub-space diagonalisation
    after iterative eigenvector-optimisation
 modified Broyden-mixing scheme, WC =      100.0
 initial mixing is a Kerker type mixing with AMIX =  0.4000 and BMIX =      1.0000
 Hartree-type preconditioning will be used
 using additional bands            4
 reciprocal scheme for non local part
 use partial core corrections
 calculate Harris-corrections to forces 
   (improved forces if not selfconsistent)
 use gradient corrections 
 use of overlap-Matrix (Vanderbilt PP)
 Gauss-broadening in eV      SIGMA  =   0.05


--------------------------------------------------------------------------------------------------------


  energy-cutoff  :      600.00
  volume of cell :       28.60
      direct lattice vectors                 reciprocal lattice vectors
     1.531381032 -2.652429754  0.000000000     0.326502673 -0.188506406  0.000000000
     1.531381032  2.652429754  0.000000000     0.326502673  0.188506406  0.000000000
     0.000000000  0.000000000  3.520870480     0.000000000  0.000000000  0.284020672

  length of vectors
     3.062762065  3.062762065  3.520870480     0.377012812  0.377012812  0.284020672


 
 k-points in units of 2pi/SCALE and weight: KPOINTS automatic                       
   0.00000000  0.00000000  0.00000000       0.000
   0.02176684 -0.01256709  0.00000000       0.002
   0.04353369 -0.02513419  0.00000000       0.002
   0.06530053 -0.03770128  0.00000000       0.002
   0.08706738 -0.05026837  0.00000000       0.002
   0.10883422 -0.06283547  0.00000000       0.002
   0.13060107 -0.07540256  0.00000000       0.002
   0.15236791 -0.08796966  0.00000000       0.002
   0.04353369  0.00000000  0.00000000       0.002
   0.06530053 -0.01256709  0.00000000       0.005
   0.08706738 -0.02513419  0.00000000       0.005
   0.10883422 -0.03770128  0.00000000       0.005
   0.13060107 -0.05026837  0.00000000       0.005
   0.15236791 -0.06283547  0.00000000       0.005
   0.17413476 -0.07540256  0.00000000       0.002
   0.08706738  0.00000000  0.00000000       0.002
   0.10883422 -0.01256709  0.00000000       0.005
   0.13060107 -0.02513419  0.00000000       0.005
   0.15236791 -0.03770128  0.00000000       0.005
   0.17413476 -0.05026837  0.00000000       0.005
   0.13060107  0.00000000  0.00000000       0.002
   0.15236791 -0.01256709  0.00000000       0.005
   0.17413476 -0.02513419  0.00000000       0.005
   0.19590160 -0.03770128  0.00000000       0.002
   0.17413476  0.00000000  0.00000000       0.002
   0.19590160 -0.01256709  0.00000000       0.005
   0.21766845  0.00000000  0.00000000       0.001
   0.00000000  0.00000000  0.02582006       0.001
   0.02176684 -0.01256709  0.02582006       0.005
   0.04353369 -0.02513419  0.02582006       0.005
   0.06530053 -0.03770128  0.02582006       0.005
   0.08706738 -0.05026837  0.02582006       0.005
   0.10883422 -0.06283547  0.02582006       0.005
   0.13060107 -0.07540256  0.02582006       0.005
   0.15236791 -0.08796966  0.02582006       0.005
   0.04353369  0.00000000  0.02582006       0.005
   0.06530053 -0.01256709  0.02582006       0.010
   0.08706738 -0.02513419  0.02582006       0.010
   0.10883422 -0.03770128  0.02582006       0.010
   0.13060107 -0.05026837  0.02582006       0.010
   0.15236791 -0.06283547  0.02582006       0.010
   0.17413476 -0.07540256  0.02582006       0.005
   0.08706738  0.00000000  0.02582006       0.005
   0.10883422 -0.01256709  0.02582006       0.010
   0.13060107 -0.02513419  0.02582006       0.010
   0.15236791 -0.03770128  0.02582006       0.010
   0.17413476 -0.05026837  0.02582006       0.010
   0.13060107  0.00000000  0.02582006       0.005
   0.15236791 -0.01256709  0.02582006       0.010
   0.17413476 -0.02513419  0.02582006       0.010
   0.19590160 -0.03770128  0.02582006       0.005
   0.17413476  0.00000000  0.02582006       0.005
   0.19590160 -0.01256709  0.02582006       0.010
   0.21766845  0.00000000  0.02582006       0.002
   0.00000000  0.00000000  0.05164012       0.001
   0.02176684 -0.01256709  0.05164012       0.005
   0.04353369 -0.02513419  0.05164012       0.005
   0.06530053 -0.03770128  0.05164012       0.005
   0.08706738 -0.05026837  0.05164012       0.005
   0.10883422 -0.06283547  0.05164012       0.005
   0.13060107 -0.07540256  0.05164012       0.005
   0.15236791 -0.08796966  0.05164012       0.005
   0.04353369  0.00000000  0.05164012       0.005
   0.06530053 -0.01256709  0.05164012       0.010
   0.08706738 -0.02513419  0.05164012       0.010
   0.10883422 -0.03770128  0.05164012       0.010
   0.13060107 -0.05026837  0.05164012       0.010
   0.15236791 -0.06283547  0.05164012       0.010
   0.17413476 -0.07540256  0.05164012       0.005
   0.08706738  0.00000000  0.05164012       0.005
   0.10883422 -0.01256709  0.05164012       0.010
   0.13060107 -0.02513419  0.05164012       0.010
   0.15236791 -0.03770128  0.05164012       0.010
   0.17413476 -0.05026837  0.05164012       0.010
   0.13060107  0.00000000  0.05164012       0.005
   0.15236791 -0.01256709  0.05164012       0.010
   0.17413476 -0.02513419  0.05164012       0.010
   0.19590160 -0.03770128  0.05164012       0.005
   0.17413476  0.00000000  0.05164012       0.005
   0.19590160 -0.01256709  0.05164012       0.010
   0.21766845  0.00000000  0.05164012       0.002
   0.00000000  0.00000000  0.07746018       0.001
   0.02176684 -0.01256709  0.07746018       0.005
   0.04353369 -0.02513419  0.07746018       0.005
   0.06530053 -0.03770128  0.07746018       0.005
   0.08706738 -0.05026837  0.07746018       0.005
   0.10883422 -0.06283547  0.07746018       0.005
   0.13060107 -0.07540256  0.07746018       0.005
   0.15236791 -0.08796966  0.07746018       0.005
   0.04353369  0.00000000  0.07746018       0.005
   0.06530053 -0.01256709  0.07746018       0.010
   0.08706738 -0.02513419  0.07746018       0.010
   0.10883422 -0.03770128  0.07746018       0.010
   0.13060107 -0.05026837  0.07746018       0.010
   0.15236791 -0.06283547  0.07746018       0.010
   0.17413476 -0.07540256  0.07746018       0.005
   0.08706738  0.00000000  0.07746018       0.005
   0.10883422 -0.01256709  0.07746018       0.010
   0.13060107 -0.02513419  0.07746018       0.010
   0.15236791 -0.03770128  0.07746018       0.010
   0.17413476 -0.05026837  0.07746018       0.010
   0.13060107  0.00000000  0.07746018       0.005
   0.15236791 -0.01256709  0.07746018       0.010
   0.17413476 -0.02513419  0.07746018       0.010
   0.19590160 -0.03770128  0.07746018       0.005
   0.17413476  0.00000000  0.07746018       0.005
   0.19590160 -0.01256709  0.07746018       0.010
   0.21766845  0.00000000  0.07746018       0.002
   0.00000000  0.00000000  0.10328024       0.001
   0.02176684 -0.01256709  0.10328024       0.005
   0.04353369 -0.02513419  0.10328024       0.005
   0.06530053 -0.03770128  0.10328024       0.005
   0.08706738 -0.05026837  0.10328024       0.005
   0.10883422 -0.06283547  0.10328024       0.005
   0.13060107 -0.07540256  0.10328024       0.005
   0.15236791 -0.08796966  0.10328024       0.005
   0.04353369  0.00000000  0.10328024       0.005
   0.06530053 -0.01256709  0.10328024       0.010
   0.08706738 -0.02513419  0.10328024       0.010
   0.10883422 -0.03770128  0.10328024       0.010
   0.13060107 -0.05026837  0.10328024       0.010
   0.15236791 -0.06283547  0.10328024       0.010
   0.17413476 -0.07540256  0.10328024       0.005
   0.08706738  0.00000000  0.10328024       0.005
   0.10883422 -0.01256709  0.10328024       0.010
   0.13060107 -0.02513419  0.10328024       0.010
   0.15236791 -0.03770128  0.10328024       0.010
   0.17413476 -0.05026837  0.10328024       0.010
   0.13060107  0.00000000  0.10328024       0.005
   0.15236791 -0.01256709  0.10328024       0.010
   0.17413476 -0.02513419  0.10328024       0.010
   0.19590160 -0.03770128  0.10328024       0.005
   0.17413476  0.00000000  0.10328024       0.005
   0.19590160 -0.01256709  0.10328024       0.010
   0.21766845  0.00000000  0.10328024       0.002
   0.00000000  0.00000000  0.12910031       0.001
   0.02176684 -0.01256709  0.12910031       0.005
   0.04353369 -0.02513419  0.12910031       0.005
   0.06530053 -0.03770128  0.12910031       0.005
   0.08706738 -0.05026837  0.12910031       0.005
   0.10883422 -0.06283547  0.12910031       0.005
   0.13060107 -0.07540256  0.12910031       0.005
   0.15236791 -0.08796966  0.12910031       0.005
   0.04353369  0.00000000  0.12910031       0.005
   0.06530053 -0.01256709  0.12910031       0.010
   0.08706738 -0.02513419  0.12910031       0.010
   0.10883422 -0.03770128  0.12910031       0.010
   0.13060107 -0.05026837  0.12910031       0.010
   0.15236791 -0.06283547  0.12910031       0.010
   0.17413476 -0.07540256  0.12910031       0.005
   0.08706738  0.00000000  0.12910031       0.005
   0.10883422 -0.01256709  0.12910031       0.010
   0.13060107 -0.02513419  0.12910031       0.010
   0.15236791 -0.03770128  0.12910031       0.010
   0.17413476 -0.05026837  0.12910031       0.010
   0.13060107  0.00000000  0.12910031       0.005
   0.15236791 -0.01256709  0.12910031       0.010
   0.17413476 -0.02513419  0.12910031       0.010
   0.19590160 -0.03770128  0.12910031       0.005
   0.17413476  0.00000000  0.12910031       0.005
   0.19590160 -0.01256709  0.12910031       0.010
   0.21766845  0.00000000  0.12910031       0.002
 
 k-points in reciprocal lattice and weights: KPOINTS automatic                       
   0.00000000  0.00000000  0.00000000       0.000
   0.06666667  0.00000000  0.00000000       0.002
   0.13333333  0.00000000  0.00000000       0.002
   0.20000000  0.00000000  0.00000000       0.002
   0.26666667  0.00000000  0.00000000       0.002
   0.33333333  0.00000000  0.00000000       0.002
   0.40000000  0.00000000  0.00000000       0.002
   0.46666667  0.00000000  0.00000000       0.002
   0.06666667  0.06666667  0.00000000       0.002
   0.13333333  0.06666667  0.00000000       0.005
   0.20000000  0.06666667  0.00000000       0.005
   0.26666667  0.06666667  0.00000000       0.005
   0.33333333  0.06666667  0.00000000       0.005
   0.40000000  0.06666667  0.00000000       0.005
   0.46666667  0.06666667  0.00000000       0.002
   0.13333333  0.13333333  0.00000000       0.002
   0.20000000  0.13333333  0.00000000       0.005
   0.26666667  0.13333333  0.00000000       0.005
   0.33333333  0.13333333  0.00000000       0.005
   0.40000000  0.13333333  0.00000000       0.005
   0.20000000  0.20000000  0.00000000       0.002
   0.26666667  0.20000000  0.00000000       0.005
   0.33333333  0.20000000  0.00000000       0.005
   0.40000000  0.20000000  0.00000000       0.002
   0.26666667  0.26666667  0.00000000       0.002
   0.33333333  0.26666667  0.00000000       0.005
   0.33333333  0.33333333  0.00000000       0.001
   0.00000000  0.00000000  0.09090909       0.001
   0.06666667  0.00000000  0.09090909       0.005
   0.13333333  0.00000000  0.09090909       0.005
   0.20000000  0.00000000  0.09090909       0.005
   0.26666667  0.00000000  0.09090909       0.005
   0.33333333  0.00000000  0.09090909       0.005
   0.40000000  0.00000000  0.09090909       0.005
   0.46666667  0.00000000  0.09090909       0.005
   0.06666667  0.06666667  0.09090909       0.005
   0.13333333  0.06666667  0.09090909       0.010
   0.20000000  0.06666667  0.09090909       0.010
   0.26666667  0.06666667  0.09090909       0.010
   0.33333333  0.06666667  0.09090909       0.010
   0.40000000  0.06666667  0.09090909       0.010
   0.46666667  0.06666667  0.09090909       0.005
   0.13333333  0.13333333  0.09090909       0.005
   0.20000000  0.13333333  0.09090909       0.010
   0.26666667  0.13333333  0.09090909       0.010
   0.33333333  0.13333333  0.09090909       0.010
   0.40000000  0.13333333  0.09090909       0.010
   0.20000000  0.20000000  0.09090909       0.005
   0.26666667  0.20000000  0.09090909       0.010
   0.33333333  0.20000000  0.09090909       0.010
   0.40000000  0.20000000  0.09090909       0.005
   0.26666667  0.26666667  0.09090909       0.005
   0.33333333  0.26666667  0.09090909       0.010
   0.33333333  0.33333333  0.09090909       0.002
   0.00000000  0.00000000  0.18181818       0.001
   0.06666667  0.00000000  0.18181818       0.005
   0.13333333  0.00000000  0.18181818       0.005
   0.20000000  0.00000000  0.18181818       0.005
   0.26666667  0.00000000  0.18181818       0.005
   0.33333333  0.00000000  0.18181818       0.005
   0.40000000  0.00000000  0.18181818       0.005
   0.46666667  0.00000000  0.18181818       0.005
   0.06666667  0.06666667  0.18181818       0.005
   0.13333333  0.06666667  0.18181818       0.010
   0.20000000  0.06666667  0.18181818       0.010
   0.26666667  0.06666667  0.18181818       0.010
   0.33333333  0.06666667  0.18181818       0.010
   0.40000000  0.06666667  0.18181818       0.010
   0.46666667  0.06666667  0.18181818       0.005
   0.13333333  0.13333333  0.18181818       0.005
   0.20000000  0.13333333  0.18181818       0.010
   0.26666667  0.13333333  0.18181818       0.010
   0.33333333  0.13333333  0.18181818       0.010
   0.40000000  0.13333333  0.18181818       0.010
   0.20000000  0.20000000  0.18181818       0.005
   0.26666667  0.20000000  0.18181818       0.010
   0.33333333  0.20000000  0.18181818       0.010
   0.40000000  0.20000000  0.18181818       0.005
   0.26666667  0.26666667  0.18181818       0.005
   0.33333333  0.26666667  0.18181818       0.010
   0.33333333  0.33333333  0.18181818       0.002
   0.00000000  0.00000000  0.27272727       0.001
   0.06666667  0.00000000  0.27272727       0.005
   0.13333333  0.00000000  0.27272727       0.005
   0.20000000  0.00000000  0.27272727       0.005
   0.26666667  0.00000000  0.27272727       0.005
   0.33333333  0.00000000  0.27272727       0.005
   0.40000000  0.00000000  0.27272727       0.005
   0.46666667  0.00000000  0.27272727       0.005
   0.06666667  0.06666667  0.27272727       0.005
   0.13333333  0.06666667  0.27272727       0.010
   0.20000000  0.06666667  0.27272727       0.010
   0.26666667  0.06666667  0.27272727       0.010
   0.33333333  0.06666667  0.27272727       0.010
   0.40000000  0.06666667  0.27272727       0.010
   0.46666667  0.06666667  0.27272727       0.005
   0.13333333  0.13333333  0.27272727       0.005
   0.20000000  0.13333333  0.27272727       0.010
   0.26666667  0.13333333  0.27272727       0.010
   0.33333333  0.13333333  0.27272727       0.010
   0.40000000  0.13333333  0.27272727       0.010
   0.20000000  0.20000000  0.27272727       0.005
   0.26666667  0.20000000  0.27272727       0.010
   0.33333333  0.20000000  0.27272727       0.010
   0.40000000  0.20000000  0.27272727       0.005
   0.26666667  0.26666667  0.27272727       0.005
   0.33333333  0.26666667  0.27272727       0.010
   0.33333333  0.33333333  0.27272727       0.002
   0.00000000  0.00000000  0.36363636       0.001
   0.06666667  0.00000000  0.36363636       0.005
   0.13333333  0.00000000  0.36363636       0.005
   0.20000000  0.00000000  0.36363636       0.005
   0.26666667  0.00000000  0.36363636       0.005
   0.33333333  0.00000000  0.36363636       0.005
   0.40000000  0.00000000  0.36363636       0.005
   0.46666667  0.00000000  0.36363636       0.005
   0.06666667  0.06666667  0.36363636       0.005
   0.13333333  0.06666667  0.36363636       0.010
   0.20000000  0.06666667  0.36363636       0.010
   0.26666667  0.06666667  0.36363636       0.010
   0.33333333  0.06666667  0.36363636       0.010
   0.40000000  0.06666667  0.36363636       0.010
   0.46666667  0.06666667  0.36363636       0.005
   0.13333333  0.13333333  0.36363636       0.005
   0.20000000  0.13333333  0.36363636       0.010
   0.26666667  0.13333333  0.36363636       0.010
   0.33333333  0.13333333  0.36363636       0.010
   0.40000000  0.13333333  0.36363636       0.010
   0.20000000  0.20000000  0.36363636       0.005
   0.26666667  0.20000000  0.36363636       0.010
   0.33333333  0.20000000  0.36363636       0.010
   0.40000000  0.20000000  0.36363636       0.005
   0.26666667  0.26666667  0.36363636       0.005
   0.33333333  0.26666667  0.36363636       0.010
   0.33333333  0.33333333  0.36363636       0.002
   0.00000000  0.00000000  0.45454545       0.001
   0.06666667  0.00000000  0.45454545       0.005
   0.13333333  0.00000000  0.45454545       0.005
   0.20000000  0.00000000  0.45454545       0.005
   0.26666667  0.00000000  0.45454545       0.005
   0.33333333  0.00000000  0.45454545       0.005
   0.40000000  0.00000000  0.45454545       0.005
   0.46666667  0.00000000  0.45454545       0.005
   0.06666667  0.06666667  0.45454545       0.005
   0.13333333  0.06666667  0.45454545       0.010
   0.20000000  0.06666667  0.45454545       0.010
   0.26666667  0.06666667  0.45454545       0.010
   0.33333333  0.06666667  0.45454545       0.010
   0.40000000  0.06666667  0.45454545       0.010
   0.46666667  0.06666667  0.45454545       0.005
   0.13333333  0.13333333  0.45454545       0.005
   0.20000000  0.13333333  0.45454545       0.010
   0.26666667  0.13333333  0.45454545       0.010
   0.33333333  0.13333333  0.45454545       0.010
   0.40000000  0.13333333  0.45454545       0.010
   0.20000000  0.20000000  0.45454545       0.005
   0.26666667  0.20000000  0.45454545       0.010
   0.33333333  0.20000000  0.45454545       0.010
   0.40000000  0.20000000  0.45454545       0.005
   0.26666667  0.26666667  0.45454545       0.005
   0.33333333  0.26666667  0.45454545       0.010
   0.33333333  0.33333333  0.45454545       0.002
 
 position of ions in fractional coordinates (direct lattice) 
   0.00000000  0.00000000  0.00000000
   0.66666667  0.33333333  0.50000000
   0.33333333  0.66666667  0.50000000
 
 position of ions in cartesian coordinates  (Angst):
   0.00000000  0.00000000  0.00000000
   1.53138103 -0.88414325  1.76043524
   1.53138103  0.88414325  1.76043524
 


--------------------------------------------------------------------------------------------------------


 k-point  1 :   0.0000 0.0000 0.0000  plane waves:     951
 k-point  2 :   0.0667 0.0000 0.0000  plane waves:     961
 k-point  3 :   0.1333 0.0000 0.0000  plane waves:     949
 k-point  4 :   0.2000 0.0000 0.0000  plane waves:     941
 k-point  5 :   0.2667 0.0000 0.0000  plane waves:     947
 k-point  6 :   0.3333 0.0000 0.0000  plane waves:     954
 k-point  7 :   0.4000 0.0000 0.0000  plane waves:     952
 k-point  8 :   0.4667 0.0000 0.0000  plane waves:     950
 k-point  9 :   0.0667 0.0667 0.0000  plane waves:     954
 k-point 10 :   0.1333 0.0667 0.0000  plane waves:     945
 k-point 11 :   0.2000 0.0667 0.0000  plane waves:     945
 k-point 12 :   0.2667 0.0667 0.0000  plane waves:     945
 k-point 13 :   0.3333 0.0667 0.0000  plane waves:     948
 k-point 14 :   0.4000 0.0667 0.0000  plane waves:     945
 k-point 15 :   0.4667 0.0667 0.0000  plane waves:     948
 k-point 16 :   0.1333 0.1333 0.0000  plane waves:     942
 k-point 17 :   0.2000 0.1333 0.0000  plane waves:     949
 k-point 18 :   0.2667 0.1333 0.0000  plane waves:     950
 k-point 19 :   0.3333 0.1333 0.0000  plane waves:     953
 k-point 20 :   0.4000 0.1333 0.0000  plane waves:     949
 k-point 21 :   0.2000 0.2000 0.0000  plane waves:     956
 k-point 22 :   0.2667 0.2000 0.0000  plane waves:     960
 k-point 23 :   0.3333 0.2000 0.0000  plane waves:     952
 k-point 24 :   0.4000 0.2000 0.0000  plane waves:     954
 k-point 25 :   0.2667 0.2667 0.0000  plane waves:     956
 k-point 26 :   0.3333 0.2667 0.0000  plane waves:     956
 k-point 27 :   0.3333 0.3333 0.0000  plane waves:     954
 k-point 28 :   0.0000 0.0000 0.0909  plane waves:     962
 k-point 29 :   0.0667 0.0000 0.0909  plane waves:     952
 k-point 30 :   0.1333 0.0000 0.0909  plane waves:     950
 k-point 31 :   0.2000 0.0000 0.0909  plane waves:     947
 k-point 32 :   0.2667 0.0000 0.0909  plane waves:     945
 k-point 33 :   0.3333 0.0000 0.0909  plane waves:     951
 k-point 34 :   0.4000 0.0000 0.0909  plane waves:     955
 k-point 35 :   0.4667 0.0000 0.0909  plane waves:     958
 k-point 36 :   0.0667 0.0667 0.0909  plane waves:     944
 k-point 37 :   0.1333 0.0667 0.0909  plane waves:     951
 k-point 38 :   0.2000 0.0667 0.0909  plane waves:     951
 k-point 39 :   0.2667 0.0667 0.0909  plane waves:     948
 k-point 40 :   0.3333 0.0667 0.0909  plane waves:     951
 k-point 41 :   0.4000 0.0667 0.0909  plane waves:     951
 k-point 42 :   0.4667 0.0667 0.0909  plane waves:     952
 k-point 43 :   0.1333 0.1333 0.0909  plane waves:     948
 k-point 44 :   0.2000 0.1333 0.0909  plane waves:     951
 k-point 45 :   0.2667 0.1333 0.0909  plane waves:     952
 k-point 46 :   0.3333 0.1333 0.0909  plane waves:     950
 k-point 47 :   0.4000 0.1333 0.0909  plane waves:     947
 k-point 48 :   0.2000 0.2000 0.0909  plane waves:     951
 k-point 49 :   0.2667 0.2000 0.0909  plane waves:     957
 k-point 50 :   0.3333 0.2000 0.0909  plane waves:     956
 k-point 51 :   0.4000 0.2000 0.0909  plane waves:     954
 k-point 52 :   0.2667 0.2667 0.0909  plane waves:     961
 k-point 53 :   0.3333 0.2667 0.0909  plane waves:     957
 k-point 54 :   0.3333 0.3333 0.0909  plane waves:     963
 k-point 55 :   0.0000 0.0000 0.1818  plane waves:     944
 k-point 56 :   0.0667 0.0000 0.1818  plane waves:     946
 k-point 57 :   0.1333 0.0000 0.1818  plane waves:     949
 k-point 58 :   0.2000 0.0000 0.1818  plane waves:     957
 k-point 59 :   0.2667 0.0000 0.1818  plane waves:     952
 k-point 60 :   0.3333 0.0000 0.1818  plane waves:     961
 k-point 61 :   0.4000 0.0000 0.1818  plane waves:     955
 k-point 62 :   0.4667 0.0000 0.1818  plane waves:     951
 k-point 63 :   0.0667 0.0667 0.1818  plane waves:     950
 k-point 64 :   0.1333 0.0667 0.1818  plane waves:     950
 k-point 65 :   0.2000 0.0667 0.1818  plane waves:     955
 k-point 66 :   0.2667 0.0667 0.1818  plane waves:     951
 k-point 67 :   0.3333 0.0667 0.1818  plane waves:     955
 k-point 68 :   0.4000 0.0667 0.1818  plane waves:     952
 k-point 69 :   0.4667 0.0667 0.1818  plane waves:     954
 k-point 70 :   0.1333 0.1333 0.1818  plane waves:     954
 k-point 71 :   0.2000 0.1333 0.1818  plane waves:     951
 k-point 72 :   0.2667 0.1333 0.1818  plane waves:     951
 k-point 73 :   0.3333 0.1333 0.1818  plane waves:     953
 k-point 74 :   0.4000 0.1333 0.1818  plane waves:     952
 k-point 75 :   0.2000 0.2000 0.1818  plane waves:     953
 k-point 76 :   0.2667 0.2000 0.1818  plane waves:     953
 k-point 77 :   0.3333 0.2000 0.1818  plane waves:     956
 k-point 78 :   0.4000 0.2000 0.1818  plane waves:     957
 k-point 79 :   0.2667 0.2667 0.1818  plane waves:     963
 k-point 80 :   0.3333 0.2667 0.1818  plane waves:     964
 k-point 81 :   0.3333 0.3333 0.1818  plane waves:     963
 k-point 82 :   0.0000 0.0000 0.2727  plane waves:     950
 k-point 83 :   0.0667 0.0000 0.2727  plane waves:     941
 k-point 84 :   0.1333 0.0000 0.2727  plane waves:     948
 k-point 85 :   0.2000 0.0000 0.2727  plane waves:     951
 k-point 86 :   0.2667 0.0000 0.2727  plane waves:     955
 k-point 87 :   0.3333 0.0000 0.2727  plane waves:     958
 k-point 88 :   0.4000 0.0000 0.2727  plane waves:     959
 k-point 89 :   0.4667 0.0000 0.2727  plane waves:     960
 k-point 90 :   0.0667 0.0667 0.2727  plane waves:     945
 k-point 91 :   0.1333 0.0667 0.2727  plane waves:     949
 k-point 92 :   0.2000 0.0667 0.2727  plane waves:     949
 k-point 93 :   0.2667 0.0667 0.2727  plane waves:     957
 k-point 94 :   0.3333 0.0667 0.2727  plane waves:     957
 k-point 95 :   0.4000 0.0667 0.2727  plane waves:     959
 k-point 96 :   0.4667 0.0667 0.2727  plane waves:     952
 k-point 97 :   0.1333 0.1333 0.2727  plane waves:     949
 k-point 98 :   0.2000 0.1333 0.2727  plane waves:     951
 k-point 99 :   0.2667 0.1333 0.2727  plane waves:     953
 k-point ** :   0.3333 0.1333 0.2727  plane waves:     957
 k-point ** :   0.4000 0.1333 0.2727  plane waves:     961
 k-point ** :   0.2000 0.2000 0.2727  plane waves:     948
 k-point ** :   0.2667 0.2000 0.2727  plane waves:     960
 k-point ** :   0.3333 0.2000 0.2727  plane waves:     961
 k-point ** :   0.4000 0.2000 0.2727  plane waves:     960
 k-point ** :   0.2667 0.2667 0.2727  plane waves:     956
 k-point ** :   0.3333 0.2667 0.2727  plane waves:     965
 k-point ** :   0.3333 0.3333 0.2727  plane waves:     963
 k-point ** :   0.0000 0.0000 0.3636  plane waves:     932
 k-point ** :   0.0667 0.0000 0.3636  plane waves:     950
 k-point ** :   0.1333 0.0000 0.3636  plane waves:     949
 k-point ** :   0.2000 0.0000 0.3636  plane waves:     953
 k-point ** :   0.2667 0.0000 0.3636  plane waves:     953
 k-point ** :   0.3333 0.0000 0.3636  plane waves:     953
 k-point ** :   0.4000 0.0000 0.3636  plane waves:     950
 k-point ** :   0.4667 0.0000 0.3636  plane waves:     962
 k-point ** :   0.0667 0.0667 0.3636  plane waves:     950
 k-point ** :   0.1333 0.0667 0.3636  plane waves:     951
 k-point ** :   0.2000 0.0667 0.3636  plane waves:     951
 k-point ** :   0.2667 0.0667 0.3636  plane waves:     954
 k-point ** :   0.3333 0.0667 0.3636  plane waves:     957
 k-point ** :   0.4000 0.0667 0.3636  plane waves:     958
 k-point ** :   0.4667 0.0667 0.3636  plane waves:     964
 k-point ** :   0.1333 0.1333 0.3636  plane waves:     947
 k-point ** :   0.2000 0.1333 0.3636  plane waves:     952
 k-point ** :   0.2667 0.1333 0.3636  plane waves:     958
 k-point ** :   0.3333 0.1333 0.3636  plane waves:     959
 k-point ** :   0.4000 0.1333 0.3636  plane waves:     964
 k-point ** :   0.2000 0.2000 0.3636  plane waves:     949
 k-point ** :   0.2667 0.2000 0.3636  plane waves:     958
 k-point ** :   0.3333 0.2000 0.3636  plane waves:     964
 k-point ** :   0.4000 0.2000 0.3636  plane waves:     970
 k-point ** :   0.2667 0.2667 0.3636  plane waves:     965
 k-point ** :   0.3333 0.2667 0.3636  plane waves:     963
 k-point ** :   0.3333 0.3333 0.3636  plane waves:     960
 k-point ** :   0.0000 0.0000 0.4545  plane waves:     932
 k-point ** :   0.0667 0.0000 0.4545  plane waves:     952
 k-point ** :   0.1333 0.0000 0.4545  plane waves:     950
 k-point ** :   0.2000 0.0000 0.4545  plane waves:     952
 k-point ** :   0.2667 0.0000 0.4545  plane waves:     947
 k-point ** :   0.3333 0.0000 0.4545  plane waves:     953
 k-point ** :   0.4000 0.0000 0.4545  plane waves:     959
 k-point ** :   0.4667 0.0000 0.4545  plane waves:     960
 k-point ** :   0.0667 0.0667 0.4545  plane waves:     954
 k-point ** :   0.1333 0.0667 0.4545  plane waves:     953
 k-point ** :   0.2000 0.0667 0.4545  plane waves:     951
 k-point ** :   0.2667 0.0667 0.4545  plane waves:     951
 k-point ** :   0.3333 0.0667 0.4545  plane waves:     957
 k-point ** :   0.4000 0.0667 0.4545  plane waves:     967
 k-point ** :   0.4667 0.0667 0.4545  plane waves:     964
 k-point ** :   0.1333 0.1333 0.4545  plane waves:     947
 k-point ** :   0.2000 0.1333 0.4545  plane waves:     952
 k-point ** :   0.2667 0.1333 0.4545  plane waves:     959
 k-point ** :   0.3333 0.1333 0.4545  plane waves:     960
 k-point ** :   0.4000 0.1333 0.4545  plane waves:     960
 k-point ** :   0.2000 0.2000 0.4545  plane waves:     955
 k-point ** :   0.2667 0.2000 0.4545  plane waves:     956
 k-point ** :   0.3333 0.2000 0.4545  plane waves:     961
 k-point ** :   0.4000 0.2000 0.4545  plane waves:     964
 k-point ** :   0.2667 0.2667 0.4545  plane waves:     958
 k-point ** :   0.3333 0.2667 0.4545  plane waves:     961
 k-point ** :   0.3333 0.3333 0.4545  plane waves:     978

 maximum and minimum number of plane-waves per node :        89       69

 maximum number of plane-waves:       978
 maximum index in each direction: 
   IXMAX=    6   IYMAX=    6   IZMAX=    7
   IXMIN=   -6   IYMIN=   -6   IZMIN=   -7

 WARNING: aliasing errors must be expected set NGX to  26 to avoid them
 WARNING: aliasing errors must be expected set NGY to  26 to avoid them
 WARNING: aliasing errors must be expected set NGZ to  30 to avoid them
 aliasing errors are usually negligible using standard VASP settings
 and one can safely disregard these warnings

 parallel 3D FFT for wavefunctions:
    minimum data exchange during FFTs selected (reduces bandwidth)
 parallel 3D FFT for charge:
    minimum data exchange during FFTs selected (reduces bandwidth)


 total amount of memory used by VASP on root node    34623. kBytes
========================================================================

   base      :      30000. kBytes
   nonl-proj :       2969. kBytes
   fftplans  :        226. kBytes
   grid      :        363. kBytes
   one-center:          8. kBytes
   wavefun   :       1057. kBytes
 
     INWAV:  cpu time    0.0000: real time    0.0001
 Broyden mixing: mesh for mixing (old mesh)
   NGX = 13   NGY = 13   NGZ = 15
  (NGX  = 48   NGY  = 48   NGZ  = 56)
  gives a total of   2535 points

 initial charge density was supplied:
 charge density of overlapping atoms calculated
 number of electron       8.0000000 magnetization 
 keeping initial charge density in first step


--------------------------------------------------------------------------------------------------------


 Maximum index for augmentation-charges          891 (set IRDMAX)


--------------------------------------------------------------------------------------------------------


 First call to EWALD:  gamma=   0.580
 Maximum number of real-space cells 3x 3x 2
 Maximum number of reciprocal cells 3x 3x 3

 FEWALD executed in parallel
    FEWALD:  cpu time    0.0012: real time    0.0012


----------------------------------------- Iteration    1(   1)  ---------------------------------------


    POTLOK:  cpu time    0.0046: real time    0.0054
    SETDIJ:  cpu time    0.0064: real time    0.0066
     EDDAV:  cpu time    0.3227: real time    0.3266
       DOS:  cpu time    0.0012: real time    0.0016
    --------------------------------------------
      LOOP:  cpu time    0.3360: real time    0.3432

 eigenvalue-minimisations  :  2684
 total energy-change (2. order) : 0.1516608E+02  (-0.3725148E+03)
 number of electron       8.0000000 magnetization 
 augmentation part        8.0000000 magnetization 

 Free energy of the ion-electron system (eV)
  ---------------------------------------------------
  alpha Z        PSCENC =        19.12161480
  Ewald energy   TEWEN  =      -196.56919550
  -Hartree energ DENC   =       -16.79150714
  -exchange      EXHF   =         0.00000000
  -V(xc)+E(xc)   XCENC  =       -34.44564798
  PAW double counting   =       152.30642628      -98.73304985
  entropy T*S    EENTRO =        -0.00038215
  eigenvalues    EBANDS =        24.90175523
  atomic energy  EATOM  =       165.37606875
  Solvation  Ediel_sol  =         0.00000000
  ---------------------------------------------------
  free energy    TOTEN  =        15.16608244 eV

  energy without entropy =       15.16646459  energy(sigma->0) =       15.16627352


--------------------------------------------------------------------------------------------------------




----------------------------------------- Iteration    1(   2)  ---------------------------------------


     EDDAV:  cpu time    0.4223: real time    0.4241
       DOS:  cpu time    0.0014: real time    0.0014
    --------------------------------------------
      LOOP:  cpu time    0.4241: real time    0.4271

 eigenvalue-minimisations  :  3432
 total energy-change (2. order) :-0.3098138E+02  (-0.2760979E+02)
 number of electron       8.0000000 magnetization 
 augmentation part        8.0000000 magnetization 

 Free energy of the ion-electron system (eV)
  ---------------------------------------------------
  alpha Z        PSCENC =        19.12161480
  Ewald energy   TEWEN  =      -196.56919550
  -Hartree energ DENC   =       -16.79150714
  -exchange      EXHF   =         0.00000000
  -V(xc)+E(xc)   XCENC  =       -34.44564798
  PAW double counting   =       152.30642628      -98.73304985
  entropy T*S    EENTRO =        -0.00084306
  eigenvalues    EBANDS =        -6.07916850
  atomic energy  EATOM  =       165.37606875
  Solvation  Ediel_sol  =         0.00000000
  ---------------------------------------------------
  free energy    TOTEN  =       -15.81530221 eV

  energy without entropy =      -15.81445915  energy(sigma->0) =      -15.81488068


--------------------------------------------------------------------------------------------------------




----------------------------------------- Iteration    1(   3)  ---------------------------------------


     EDDAV:  cpu time    0.3944: real time    0.3961
       DOS:  cpu time    0.0014: real time    0.0014
    --------------------------------------------
      LOOP:  cpu time    0.3960: real time    0.3991

 eigenvalue-minimisations  :  3524
 total energy-change (2. order) :-0.1246567E+01  (-0.1233893E+01)
 number of electron       8.0000000 magnetization 
 augmentation part        8.0000000 magnetization 

 Free energy of the ion-electron system (eV)
  ---------------------------------------------------
  alpha Z        PSCENC =        19.12161480
  Ewald energy   TEWEN  =      -196.56919550
  -Hartree energ DENC   =       -16.79150714
  -exchange      EXHF   =         0.00000000
  -V(xc)+E(xc)   XCENC  =       -34.44564798
  PAW double counting   =       152.30642628      -98.73304985
  entropy T*S    EENTRO =        -0.00071394
  eigenvalues    EBANDS =        -7.32586451
  atomic energy  EATOM  =       165.37606875
  Solvation  Ediel_sol  =         0.00000000
  ---------------------------------------------------
  free energy    TOTEN  =       -17.06186909 eV

  energy without entropy =      -17.06115516  energy(sigma->0) =      -17.06151212


--------------------------------------------------------------------------------------------------------




----------------------------------------- Iteration    1(   4)  ---------------------------------------


     EDDAV:  cpu time    0.3745: real time    0.3760
       DOS:  cpu time    0.0014: real time    0.0014
    --------------------------------------------
      LOOP:  cpu time    0.3761: real time    0.3794

 eigenvalue-minimisations  :  3004
 total energy-change (2. order) :-0.6966181E-02  (-0.6963348E-02)
 number of electron       8.0000000 magnetization 
 augmentation part        8.0000000 magnetization 

 Free energy of the ion-electron system (eV)
  ---------------------------------------------------
  alpha Z        PSCENC =        19.12161480
  Ewald energy   TEWEN  =      -196.56919550
  -Hartree energ DENC   =       -16.79150714
  -exchange      EXHF   =         0.00000000
  -V(xc)+E(xc)   XCENC  =       -34.44564798
  PAW double counting   =       152.30642628      -98.73304985
  entropy T*S    EENTRO =        -0.00072014
  eigenvalues    EBANDS =        -7.33282449
  atomic energy  EATOM  =       165.37606875
  Solvation  Ediel_sol  =         0.00000000
  ---------------------------------------------------
  free energy    TOTEN  =       -17.06883527 eV

  energy without entropy =      -17.06811514  energy(sigma->0) =      -17.06847521


--------------------------------------------------------------------------------------------------------




----------------------------------------- Iteration    1(   5)  ---------------------------------------


     EDDAV:  cpu time    0.3859: real time    0.3876
       DOS:  cpu time    0.0011: real time    0.0011
    CHARGE:  cpu time    0.0177: real time    0.0177
    MIXING:  cpu time    0.0009: real time    0.0011
    --------------------------------------------
      LOOP:  cpu time    0.4061: real time    0.4094

 eigenvalue-minimisations  :  3424
 total energy-change (2. order) :-0.5589437E-04  (-0.5588965E-04)
 number of electron       8.0000000 magnetization 
 augmentation part        0.0045920 magnetization 

 Broyden mixing:
  rms(total) = 0.53478E+00    rms(broyden)= 0.53477E+00
  rms(prec ) = 0.17883E+01
  weight for this iteration     100.00

 Free energy of the ion-electron system (eV)
  ---------------------------------------------------
  alpha Z        PSCENC =        19.12161480
  Ewald energy   TEWEN  =      -196.56919550
  -Hartree energ DENC   =       -16.79150714
  -exchange      EXHF   =         0.00000000
  -V(xc)+E(xc)   XCENC  =       -34.44564798
  PAW double counting   =       152.30642628      -98.73304985
  entropy T*S    EENTRO =        -0.00072021
  eigenvalues    EBANDS =        -7.33288032
  atomic energy  EATOM  =       165.37606875
  Solvation  Ediel_sol  =         0.00000000
  ---------------------------------------------------
  free energy    TOTEN  =       -17.06889117 eV

  energy without entropy =      -17.06817096  energy(sigma->0) =      -17.06853106


--------------------------------------------------------------------------------------------------------




----------------------------------------- Iteration    1(   6)  ---------------------------------------


    POTLOK:  cpu time    0.0050: real time    0.0051
    SETDIJ:  cpu time    0.0027: real time    0.0027
     EDDAV:  cpu time    0.3412: real time    0.3427
       DOS:  cpu time    0.0013: real time    0.0013
    CHARGE:  cpu time    0.0136: real time    0.0137
    MIXING:  cpu time    0.0003: real time    0.0003
    --------------------------------------------
      LOOP:  cpu time    0.3646: real time    0.3675

 eigenvalue-minimisations  :  2968
 total energy-change (2. order) : 0.1494998E+01  (-0.1445031E+00)
 number of electron       8.0000000 magnetization 
 augmentation part       -0.0049460 magnetization 

 Broyden mixing:
  rms(total) = 0.25295E+00    rms(broyden)= 0.25295E+00
  rms(prec ) = 0.73547E+00
  weight for this iteration     100.00

 eigenvalues of (default mixing * dielectric matrix)
  average eigenvalue GAMMA=   1.7482
  1.7482

 Free energy of the ion-electron system (eV)
  ---------------------------------------------------
  alpha Z        PSCENC =        19.12161480
  Ewald energy   TEWEN  =      -196.56919550
  -Hartree energ DENC   =       -22.44770088
  -exchange      EXHF   =         0.00000000
  -V(xc)+E(xc)   XCENC  =       -34.01603515
  PAW double counting   =       263.74549260     -210.27492676
  entropy T*S    EENTRO =        -0.00112031
  eigenvalues    EBANDS =        -0.50809035
  atomic energy  EATOM  =       165.37606875
  Solvation  Ediel_sol  =         0.00000000
  ---------------------------------------------------
  free energy    TOTEN  =       -15.57389280 eV

  energy without entropy =      -15.57277249  energy(sigma->0) =      -15.57333265


--------------------------------------------------------------------------------------------------------




----------------------------------------- Iteration    1(   7)  ---------------------------------------


    POTLOK:  cpu time    0.0028: real time    0.0028
    SETDIJ:  cpu time    0.0016: real time    0.0016
     EDDAV:  cpu time    0.3771: real time    0.3787
       DOS:  cpu time    0.0014: real time    0.0014
    CHARGE:  cpu time    0.0139: real time    0.0140
    MIXING:  cpu time    0.0003: real time    0.0003
    --------------------------------------------
      LOOP:  cpu time    0.3975: real time    0.4007

 eigenvalue-minimisations  :  3264
 total energy-change (2. order) : 0.2485442E+00  (-0.7331298E-01)
 number of electron       8.0000000 magnetization 
 augmentation part       -0.0115400 magnetization 

 Broyden mixing:
  rms(total) = 0.78484E-01    rms(broyden)= 0.78484E-01
  rms(prec ) = 0.15403E+00
  weight for this iteration     100.00

 eigenvalues of (default mixing * dielectric matrix)
  average eigenvalue GAMMA=   1.9894
  1.9894  1.9894

 Free energy of the ion-electron system (eV)
  ---------------------------------------------------
  alpha Z        PSCENC =        19.12161480
  Ewald energy   TEWEN  =      -196.56919550
  -Hartree energ DENC   =       -26.68695196
  -exchange      EXHF   =         0.00000000
  -V(xc)+E(xc)   XCENC  =       -33.63852985
  PAW double counting   =       425.18686518     -371.77575954
  entropy T*S    EENTRO =        -0.00105673
  eigenvalues    EBANDS =         3.66159620
  atomic energy  EATOM  =       165.37606875
  Solvation  Ediel_sol  =         0.00000000
  ---------------------------------------------------
  free energy    TOTEN  =       -15.32534864 eV

  energy without entropy =      -15.32429191  energy(sigma->0) =      -15.32482028


--------------------------------------------------------------------------------------------------------




----------------------------------------- Iteration    1(   8)  ---------------------------------------


    POTLOK:  cpu time    0.0028: real time    0.0028
    SETDIJ:  cpu time    0.0018: real time    0.0018
     EDDAV:  cpu time    0.3358: real time    0.3372
       DOS:  cpu time    0.0014: real time    0.0014
    CHARGE:  cpu time    0.0135: real time    0.0136
    MIXING:  cpu time    0.0002: real time    0.0003
    --------------------------------------------
      LOOP:  cpu time    0.3560: real time    0.3589

 eigenvalue-minimisations  :  2928
 total energy-change (2. order) :-0.5591538E-02  (-0.8634818E-02)
 number of electron       8.0000000 magnetization 
 augmentation part       -0.0097600 magnetization 

 Broyden mixing:
  rms(total) = 0.39183E-01    rms(broyden)= 0.39183E-01
  rms(prec ) = 0.14044E+00
  weight for this iteration     100.00

 eigenvalues of (default mixing * dielectric matrix)
  average eigenvalue GAMMA=   1.6590
  2.5076  0.9392  1.5302

 Free energy of the ion-electron system (eV)
  ---------------------------------------------------
  alpha Z        PSCENC =        19.12161480
  Ewald energy   TEWEN  =      -196.56919550
  -Hartree energ DENC   =       -25.63862272
  -exchange      EXHF   =         0.00000000
  -V(xc)+E(xc)   XCENC  =       -33.65168272
  PAW double counting   =       482.32879442     -428.90256331
  entropy T*S    EENTRO =        -0.00082256
  eigenvalues    EBANDS =         2.60546866
  atomic energy  EATOM  =       165.37606875
  Solvation  Ediel_sol  =         0.00000000
  ---------------------------------------------------
  free energy    TOTEN  =       -15.33094018 eV

  energy without entropy =      -15.33011762  energy(sigma->0) =      -15.33052890


--------------------------------------------------------------------------------------------------------




----------------------------------------- Iteration    1(   9)  ---------------------------------------


    POTLOK:  cpu time    0.0027: real time    0.0027
    SETDIJ:  cpu time    0.0016: real time    0.0016
     EDDAV:  cpu time    0.3478: real time    0.3492
       DOS:  cpu time    0.0014: real time    0.0014
    CHARGE:  cpu time    0.0140: real time    0.0141
    MIXING:  cpu time    0.0003: real time    0.0003
    --------------------------------------------
      LOOP:  cpu time    0.3682: real time    0.3714

 eigenvalue-minimisations  :  2948
 total energy-change (2. order) : 0.9487883E-02  (-0.1563967E-02)
 number of electron       8.0000000 magnetization 
 augmentation part       -0.0107543 magnetization 

 Broyden mixing:
  rms(total) = 0.51454E-02    rms(broyden)= 0.51454E-02
  rms(prec ) = 0.10276E-01
  weight for this iteration     100.00

[...]
      7      13.7516      0.00000
      8      16.5538      0.00000

 k-point   133 :       0.2667    0.2667    0.3636
  band No.  band energies     occupation 
      1      -2.8052      2.00000
      2      -0.1120      2.00000
      3       0.8547      2.00000
      4       2.3154      2.00000
      5       5.3015      0.63532
      6      10.1749      0.00000
      7      14.9972      0.00000
      8      15.7772      0.00000

 k-point   134 :       0.3333    0.2667    0.3636
  band No.  band energies     occupation 
      1      -1.9797      2.00000
      2      -0.9029      2.00000
      3       0.4733      2.00000
      4       3.0890      2.00000
      5       4.5023      2.00000
      6       9.7241      0.00000
      7      15.2795      0.00000
      8      16.4793      0.00000

 k-point   135 :       0.3333    0.3333    0.3636
  band No.  band energies     occupation 
      1      -1.2726      2.00000
      2      -1.2726      2.00000
      3      -0.0291      2.00000
      4       3.8272      2.00000
      5       3.8272      2.00000
      6       9.4242      0.00000
      7      16.4951      0.00000
      8      16.4951      0.00000

 k-point   136 :       0.0000    0.0000    0.4545
  band No.  band energies     occupation 
      1      -5.9349      2.00000
      2      -2.0756      2.00000
      3       6.0625      0.00000
      4       6.0625      0.00000
      5      12.0136      0.00000
      6      12.0136      0.00000
      7      13.3729      0.00000
      8      14.8905      0.00000

 k-point   137 :       0.0667    0.0000    0.4545
  band No.  band energies     occupation 
      1      -5.8639      2.00000
      2      -1.9870      2.00000
      3       5.6949      0.00000
      4       5.8645      0.00000
      5      12.0200      0.00000
      6      12.3711      0.00000
      7      12.7542      0.00000
      8      14.9630      0.00000

 k-point   138 :       0.1333    0.0000    0.4545
  band No.  band energies     occupation 
      1      -5.6511      2.00000
      2      -1.7225      2.00000
      3       4.7608      2.00000
      4       5.3887      0.00328
      5      11.3895      0.00000
      6      11.9553      0.00000
      7      13.3224      0.00000
      8      15.1604      0.00000

 k-point   139 :       0.2000    0.0000    0.4545
  band No.  band energies     occupation 
      1      -5.2974      2.00000
      2      -1.2864      2.00000
      3       3.5441      2.00000
      4       4.8285      2.00000
      5       9.8124      0.00000
      6      11.7619      0.00000
      7      14.6618      0.00000
      8      15.3944      0.00000

 k-point   140 :       0.2667    0.0000    0.4545
  band No.  band energies     occupation 
      1      -4.8043      2.00000
      2      -0.6874      2.00000
      3       2.2360      2.00000
      4       4.3067      2.00000
      5       8.2116      0.00000
      6      11.5245      0.00000
      7      15.2222      0.00000
      8      15.2761      0.00000

 k-point   141 :       0.3333    0.0000    0.4545
  band No.  band energies     occupation 
      1      -4.1751      2.00000
      2       0.0563      2.00000
      3       0.9410      2.00000
      4       3.8845      2.00000
      5       6.6803      0.00000
      6      11.3087      0.00000
      7      14.7972      0.00000
      8      14.8192      0.00000

 k-point   142 :       0.4000    0.0000    0.4545
  band No.  band energies     occupation 
      1      -3.4172      2.00000
      2      -0.2843      2.00000
      3       0.9023      2.00000
      4       3.5916      2.00000
      5       5.2982      0.70395
      6      11.1510      0.00000
      7      14.4473      0.00000
      8      14.5108      0.00000

 k-point   143 :       0.4667    0.0000    0.4545
  band No.  band energies     occupation 
      1      -2.5726      2.00000
      2      -1.3667      2.00000
      3       1.6612      2.00000
      4       3.4421      2.00000
      5       4.2664      2.00000
      6      11.0687      0.00000
      7      14.2525      0.00000
      8      14.3671      0.00000

 k-point   144 :       0.0667    0.0667    0.4545
  band No.  band energies     occupation 
      1      -5.7220      2.00000
      2      -1.8105      2.00000
      3       5.1026      2.00000
      4       5.4679      0.00000
      5      11.8052      0.00000
      6      12.1159      0.00000
      7      12.8760      0.00000
      8      15.0865      0.00000

 k-point   145 :       0.1333    0.0667    0.4545
  band No.  band energies     occupation 
      1      -5.4388      2.00000
      2      -1.4601      2.00000
      3       4.1106      2.00000
      4       4.8640      2.00000
      5      10.4283      0.00000
      6      12.1506      0.00000
      7      13.7568      0.00000
      8      14.9987      0.00000

 k-point   146 :       0.2000    0.0667    0.4545
  band No.  band energies     occupation 
      1      -5.0154      2.00000
      2      -0.9421      2.00000
      3       2.8900      2.00000
      4       4.2804      2.00000
      5       8.9132      0.00000
      6      11.9987      0.00000
      7      14.2313      0.00000
      8      15.0140      0.00000

 k-point   147 :       0.2667    0.0667    0.4545
  band No.  band energies     occupation 
      1      -4.4541      2.00000
      2      -0.2688      2.00000
      3       1.6063      2.00000
      4       3.7914      2.00000
      5       7.3942      0.00000
      6      11.7891      0.00000
      7      13.5467      0.00000
      8      16.2634      0.00000

 k-point   148 :       0.3333    0.0667    0.4545
  band No.  band energies     occupation 
      1      -3.7598      2.00000
      2       0.3489      2.00000
      3       0.5385      2.00000
      4       3.4274      2.00000
      5       5.9584      0.00000
      6      11.6043      0.00000
      7      13.0524      0.00000
      8      16.2624      0.00000

 k-point   149 :       0.4000    0.0667    0.4545
  band No.  band energies     occupation 
      1      -2.9475      2.00000
      2      -0.8076      2.00000
      3       1.3795      2.00000
      4       3.2040      2.00000
      5       4.7228      2.00000
      6      11.4819      0.00000
      7      12.7565      0.00000
      8      16.0897      0.00000

 k-point   150 :       0.4667    0.0667    0.4545
  band No.  band energies     occupation 
      1      -2.2527      2.00000
      2      -1.6204      2.00000
      3       1.8684      2.00000
      4       3.1284      2.00000
      5       4.1025      2.00000
      6      11.4394      0.00000
      7      12.6582      0.00000
      8      16.0225      0.00000

 k-point   151 :       0.1333    0.1333    0.4545
  band No.  band energies     occupation 
      1      -5.0858      2.00000
      2      -1.0275      2.00000
      3       3.2991      2.00000
      4       4.0504      2.00000
      5       9.2225      0.00000
      6      12.6337      0.00000
      7      13.8062      0.00000
      8      14.0758      0.00000

 k-point   152 :       0.2000    0.1333    0.4545
  band No.  band energies     occupation 
      1      -4.5942      2.00000
      2      -0.4338      2.00000
      3       2.2448      2.00000
      4       3.3570      2.00000
      5       7.9059      0.00000
      6      12.6571      0.00000
      7      12.8836      0.00000
      8      14.9353      0.00000

 k-point   153 :       0.2667    0.1333    0.4545
  band No.  band energies     occupation 
      1      -3.9674      2.00000
      2       0.3035      2.00000
      3       1.0548      2.00000
      4       2.8765      2.00000
      5       6.5632      0.00000
      6      11.9372      0.00000
      7      12.7213      0.00000
      8      16.2405      0.00000

 k-point   154 :       0.3333    0.1333    0.4545
  band No.  band energies     occupation 
      1      -3.2136      2.00000
      2      -0.1235      2.00000
      3       1.1433      2.00000
      4       2.5657      2.00000
      5       5.2910      0.85881
      6      11.4354      0.00000
      7      12.5932      0.00000
      8      17.3715      0.00000

 k-point   155 :       0.4000    0.1333    0.4545
  band No.  band energies     occupation 
      1      -2.3760      2.00000
      2      -1.1829      2.00000
      3       1.9072      2.00000
      4       2.4108      2.00000
      5       4.3015      2.00000
      6      11.1884      0.00000
      7      12.5198      0.00000
      8      17.6637      0.00000

 k-point   156 :       0.2000    0.2000    0.4545
  band No.  band energies     occupation 
      1      -4.0369      2.00000
      2       0.2262      2.00000
      3       1.5328      2.00000
      4       2.4225      2.00000
      5       6.8344      0.00000
      6      11.5222      0.00000
      7      13.7060      0.00000
      8      15.0461      0.00000

 k-point   157 :       0.2667    0.2000    0.4545
  band No.  band energies     occupation 
      1      -3.3492      2.00000
      2       0.5751      2.00000
      3       1.0130      2.00000
      4       1.8356      2.00000
      5       5.7257      0.00000
      6      10.6621      0.00000
      7      13.9731      0.00000
      8      16.0210      0.00000

 k-point   158 :       0.3333    0.2000    0.4545
  band No.  band energies     occupation 
      1      -2.5483      2.00000
      2      -0.4803      2.00000
      3       1.5470      2.00000
      4       1.8573      2.00000
      5       4.6722      2.00000
      6      10.1573      0.00000
      7      13.9369      0.00000
      8      17.3996      0.00000

 k-point   159 :       0.4000    0.2000    0.4545
  band No.  band energies     occupation 
      1      -1.8668      2.00000
      2      -1.2573      2.00000
      3       1.4611      2.00000
      4       2.3695      2.00000
      5       4.0827      2.00000
      6       9.9921      0.00000
      7      13.9102      0.00000
      8      18.1266      0.00000

 k-point   160 :       0.2667    0.2667    0.4545
  band No.  band energies     occupation 
      1      -2.6108      2.00000
      2       0.0433      2.00000
      3       0.9634      2.00000
      4       1.8262      2.00000
      5       4.8645      2.00000
      6       9.7534      0.00000
      7      15.2310      0.00000
      8      16.0813      0.00000

 k-point   161 :       0.3333    0.2667    0.4545
  band No.  band energies     occupation 
      1      -1.7970      2.00000
      2      -0.7401      2.00000
      3       0.5874      2.00000
      4       2.6199      2.00000
      5       4.0517      2.00000
      6       9.2877      0.00000
      7      15.5095      0.00000
      8      17.2586      0.00000

 k-point   162 :       0.3333    0.3333    0.4545
  band No.  band energies     occupation 
      1      -1.0983      2.00000
      2      -1.0983      2.00000
      3       0.0839      2.00000
      4       3.3702      2.00000
      5       3.3702      2.00000
      6       8.9756      0.00000
      7      17.0220      0.00000
      8      17.2508      0.00000


--------------------------------------------------------------------------------------------------------


 soft charge-density along one line, spin component           1
         0         1         2         3         4         5         6         7         8         9
 total charge-density along one line
 
 pseudopotential strength for first ion, spin component:           1
  2.978   9.472  -0.000  -0.000  -0.000  -0.000  -0.000  -0.000
  9.472  29.967  -0.000  -0.000  -0.000  -0.000  -0.000  -0.000
 -0.000  -0.000   7.277   0.000   0.000  10.570   0.000   0.000
 -0.000  -0.000   0.000   7.273  -0.000   0.000  10.562  -0.000
 -0.000  -0.000   0.000  -0.000   7.277   0.000  -0.000  10.570
 -0.000  -0.000  10.570   0.000   0.000  14.559   0.000   0.000
 -0.000  -0.000   0.000  10.562  -0.000   0.000  14.548  -0.000
 -0.000  -0.000   0.000  -0.000  10.570   0.000  -0.000  14.559
  0.000   0.000  -0.000   0.000  -0.000  -0.000   0.000  -0.000
  0.000   0.000  -0.000  -0.000   0.000  -0.000  -0.000   0.000
 -0.002  -0.005   0.000  -0.000   0.000   0.000  -0.000   0.000
 -0.000  -0.000   0.000  -0.000  -0.000   0.000  -0.000  -0.000
 -0.000  -0.000   0.000  -0.000  -0.000   0.000  -0.000  -0.000
 total augmentation occupancy for first ion, spin component:           1
  1.044  -0.039   0.000   0.000   0.000   0.000   0.000   0.000   0.000  -0.000   0.009   0.000   0.000
 -0.039   0.002   0.000   0.000   0.000   0.000   0.000   0.000   0.000  -0.000  -0.001  -0.000   0.000
  0.000   0.000   0.114  -0.000   0.000  -0.010  -0.000   0.000   0.000   0.000   0.000   0.000   0.000
  0.000   0.000  -0.000   0.116   0.000   0.000  -0.011  -0.000   0.000   0.000   0.000   0.000   0.000
  0.000   0.000   0.000   0.000   0.114   0.000  -0.000  -0.010   0.000   0.000   0.000   0.000   0.000
  0.000   0.000  -0.010   0.000   0.000   0.001  -0.000   0.000   0.000   0.000   0.000   0.000   0.000
  0.000   0.000   0.000  -0.011  -0.000   0.000   0.001   0.000   0.000   0.000   0.000   0.000   0.000
  0.000   0.000   0.000  -0.000  -0.010   0.000   0.000   0.001   0.000   0.000   0.000   0.000   0.000
 -0.000   0.000   0.000   0.000   0.000   0.000   0.000   0.000   0.015   0.000   0.000   0.000   0.000
 -0.000   0.000   0.000   0.000   0.000   0.000   0.000   0.000   0.000   0.033   0.000   0.000   0.000
  0.009  -0.001   0.000   0.000   0.000   0.000   0.000   0.000   0.000   0.000   0.009  -0.000   0.000
  0.000   0.000   0.000   0.000   0.000   0.000   0.000   0.000  -0.000   0.000  -0.000   0.033   0.000
  0.000   0.000   0.000   0.000   0.000   0.000   0.000   0.000  -0.000   0.000   0.000   0.000   0.015


------------------------ aborting loop because EDIFF is reached ----------------------------------------


    CHARGE:  cpu time    0.0133: real time    0.0133
    FORLOC:  cpu time    0.0003: real time    0.0003
    FORNL :  cpu time    0.0244: real time    0.0245
    STRESS:  cpu time    0.0950: real time    0.0952
    FORCOR:  cpu time    0.0029: real time    0.0029
    FORHAR:  cpu time    0.0007: real time    0.0008
    MIXING:  cpu time    0.0002: real time    0.0002
    OFIELD:  cpu time    0.0000: real time    0.0000

  FORCE on cell =-STRESS in cart. coord.  units (eV):
  Direction    XX          YY          ZZ          XY          YZ          ZX
  --------------------------------------------------------------------------------------
  Alpha Z    18.97385    18.97385    18.97385
  Ewald     -42.74720   -42.74720  -110.58396     0.00000    -0.00000     0.00000
  Hartree    21.10867    21.10867   -15.80619     0.00000    -0.00000    -0.00000
  E(xc)     -24.77446   -24.77446   -24.84901    -0.00000    -0.00000    -0.00000
  Local     -51.07683   -51.07683    54.50704     0.00000    -0.00000     0.00000
  n-local     4.30115     5.27989     5.99279     0.03647    -0.09852     0.74023
  augment     0.32364     0.32364     0.35087     0.00000     0.00000    -0.00000
  Kinetic    76.88477    69.91472    71.42200    -0.04114     0.83771    -6.45914
  Fock        0.00000     0.00000     0.00000     0.00000     0.00000     0.00000
  -------------------------------------------------------------------------------------
  Total      -0.00207    -0.00207     0.00738     0.00000     0.00000     0.00000
  in kB      -0.11496    -0.11496     0.41038     0.00000     0.00000     0.00000
  external pressure =        0.06 kB  Pullay stress =        0.00 kB


 VOLUME and BASIS-vectors are now :
 -----------------------------------------------------------------------------
  energy-cutoff  :      600.00
  volume of cell :       28.83
      direct lattice vectors                 reciprocal lattice vectors
     1.535534262 -2.659623358 -0.000000000     0.325619566 -0.187996544 -0.000000000
     1.535534262  2.659623358 -0.000000000     0.325619566  0.187996544 -0.000000000
     0.000000000 -0.000000000  3.529122234     0.000000000  0.000000000  0.283356578

  length of vectors
     3.071068523  3.071068523  3.529122234     0.375993088  0.375993088  0.283356578


 FORCES acting on ions
    electron-ion (+dipol)            ewald-force                    non-local-force                 convergence-correction
 -----------------------------------------------------------------------------------------------
   0.389E-14 -.161E-14 0.440E-15   0.366E-15 -.337E-15 -.647E-15   0.129E-25 0.103E-24 0.000E+00   0.329E-17 -.183E-16 0.110E-14
   0.802E-14 -.770E-08 -.567E-12   -.179E-14 -.539E-11 0.315E-15   -.173E-16 0.555E-16 -.867E-18   0.236E-14 -.193E-10 -.555E-14
   -.293E-13 0.770E-08 -.288E-12   0.206E-14 0.539E-11 0.315E-15   0.173E-16 -.555E-16 0.867E-18   -.218E-14 0.193E-10 -.409E-14
 -----------------------------------------------------------------------------------------------
   -.174E-13 -.261E-15 -.854E-12   0.633E-15 -.123E-15 -.174E-16   0.129E-25 0.103E-24 0.000E+00   0.183E-15 0.394E-15 -.854E-14
 
 
 POSITION                                       TOTAL-FORCE (eV/Angst)
 -----------------------------------------------------------------------------------
      0.00000      0.00000      0.00000         0.000000     -0.000000      0.000000
      1.53553     -0.88654      1.76456         0.000000      0.000000     -0.000000
      1.53553      0.88654      1.76456        -0.000000     -0.000000      0.000000
 -----------------------------------------------------------------------------------
    total drift:                               -0.000000      0.000000     -0.000000


--------------------------------------------------------------------------------------------------------



  FREE ENERGIE OF THE ION-ELECTRON SYSTEM (eV)
  ---------------------------------------------------
  free  energy   TOTEN  =       -15.32233580 eV

  energy  without entropy=      -15.32115967  energy(sigma->0) =      -15.32174774
 
 d Force = 0.0000000E+00[ 0.000E+00, 0.000E+00]  d Energy = 0.1973541E-04-0.197E-04
 d Force = 0.0000000E+00[ 0.000E+00, 0.000E+00]  d Ewald  =-0.6613125E-01 0.661E-01


--------------------------------------------------------------------------------------------------------


    POTLOK:  cpu time    0.0043: real time    0.0043


--------------------------------------------------------------------------------------------------------


 Conjugate gradient step on ions:
 trial-energy change:   -0.000020  1 .order   -0.000020   -0.000035   -0.000006
  (g-gl).g = 0.356E-04      g.g   = 0.368E-04  gl.gl    = 0.243E-02
 g(Force)  = 0.344E-51   g(Stress)= 0.368E-04 ortho     = 0.121E-05
 gamma     =   0.01465
 trial     =   0.93912
 opt step  =   1.12625  (harmonic =   1.12625) maximal distance =0.00000000
 next E    =   -15.322337   (d E  =  -0.00002)


--------------------------------------------------------------------------------------------------------


  
 reached required accuracy - stopping structural energy minimisation
     LOOP+:  cpu time    1.5168: real time    1.5358
    4ORBIT:  cpu time    0.0000: real time    0.0000

 total amount of memory used by VASP on root node    34623. kBytes
========================================================================

   base      :      30000. kBytes
   nonl-proj :       2969. kBytes
   fftplans  :        226. kBytes
   grid      :        363. kBytes
   one-center:          8. kBytes
   wavefun   :       1057. kBytes
 
  
  
 General timing and accounting informations for this job:
 ========================================================
  
                  Total CPU time used (sec):       11.119
                            User time (sec):       11.025
                          System time (sec):        0.095
                         Elapsed time (sec):       11.501
  
                   Maximum memory used (kb):      138428.
                   Average memory used (kb):           0.
  
                          Minor page faults:        19876
                          Major page faults:           42
                 Voluntary context switches:         1151
