 running on   24 total cores
 distrk:  each k-point on   24 cores,    1 groups
 distr:  one band on   12 cores,    2 groups
 using from now: INCAR     
 vasp.5.4.1 24Jun15 (build Sep 20 2023 02:35:02) complex                        
  
 POSCAR found type information on POSCAR  Mg B 
 POSCAR found :  2 types and       3 ions
 scaLAPACK is switched off

 ----------------------------------------------------------------------------- 
|                                                                             |
|           W    W    AA    RRRRR   N    N  II  N    N   GGGG   !!!           |
|           W    W   A  A   R    R  NN   N  II  NN   N  G    G  !!!           |
|           W    W  A    A  R    R  N N  N  II  N N  N  G       !!!           |
|           W WW W  AAAAAA  RRRRR   N  N N  II  N  N N  G  GGG   !            |
|           WW  WW  A    A  R   R   N   NN  II  N   NN  G    G                |
|           W    W  A    A  R    R  N    N  II  N    N   GGGG   !!!           |
|                                                                             |
|      For optimal performance we recommend to set                            |
|        NCORE= 4 - approx SQRT( number of cores)                             |
|      NCORE specifies how many cores store one orbital (NPAR=cpu/NCORE).     |
|      This setting can  greatly improve the performance of VASP for DFT.     |
|      The default, NPAR=number of cores might be grossly inefficient         |
|      on modern multi-core architectures or massively parallel machines.     |
|      Do your own testing !!!!                                               |
|      Unfortunately you need to use the default for GW and RPA calculations. |
|      (for HF NCORE is supported but not extensively tested yet)             |
|                                                                             |
 ----------------------------------------------------------------------------- 

 LDA part: xc-table for Pade appr. of Perdew
 POSCAR, INCAR and KPOINTS ok, starting setup
 WARNING: small aliasing (wrap around) errors must be expected
 FFT: planning ...
 WAVECAR not read
 WARNING: random wavefunctions but no delay for mixing, default for NELMDL
 entering main loop
       N       E                     dE             d eps       ncg     rms          rms(c)
DAV:   1     0.151660824432E+02    0.15166E+02   -0.37251E+03  2684   0.949E+02
DAV:   2    -0.158153022100E+02   -0.30981E+02   -0.27610E+02  3432   0.162E+02
DAV:   3    -0.170618690933E+02   -0.12466E+01   -0.12339E+01  3524   0.293E+01
DAV:   4    -0.170688352740E+02   -0.69662E-02   -0.69633E-02  3004   0.237E+00
DAV:   5    -0.170688911683E+02   -0.55894E-04   -0.55890E-04  3424   0.214E-01    0.535E+00
DAV:   6    -0.155738928028E+02    0.14950E+01   -0.14450E+00  2968   0.874E+00    0.253E+00
DAV:   7    -0.153253486396E+02    0.24854E+00   -0.73313E-01  3264   0.625E+00    0.785E-01
DAV:   8    -0.153309401776E+02   -0.55915E-02   -0.86348E-02  2928   0.234E+00    0.392E-01
DAV:   9    -0.153214522942E+02    0.94879E-02   -0.15640E-02  2948   0.944E-01    0.515E-02
DAV:  10    -0.153214963868E+02   -0.44093E-04   -0.90577E-04  3376   0.234E-01    0.322E-02
DAV:  11    -0.153214813207E+02    0.15066E-04   -0.83825E-05  2876   0.722E-02    0.615E-03
DAV:  12    -0.153214791302E+02    0.21905E-05   -0.76448E-06  3072   0.219E-02    0.182E-03
DAV:  13    -0.153214790519E+02    0.78325E-07   -0.20957E-07  1772   0.444E-03
   1 F= -.15321479E+02 E0= -.15320899E+02  d E =-.153215E+02
 curvature:   0.00 expect dE= 0.000E+00 dE for cont linesearch  0.000E+00
 trial: gam= 0.00000 g(F)=  0.150E-51 g(S)=  0.243E-02 ort = 0.000E+00 (trialstep = 0.100E+01)
 search vector abs. value=  0.243E-02
 bond charge predicted
       N       E                     dE             d eps       ncg     rms          rms(c)
DAV:   1    -0.153223473509E+02   -0.86822E-03   -0.14847E-02  2996   0.155E+00    0.822E-02
DAV:   2    -0.153221980253E+02    0.14933E-03   -0.20565E-04  3112   0.131E-01    0.423E-02
DAV:   3    -0.153221592515E+02    0.38774E-04   -0.50287E-05  3144   0.560E-02    0.122E-02
DAV:   4    -0.153221538901E+02    0.53614E-05   -0.36366E-06  3176   0.157E-02    0.135E-03
DAV:   5    -0.153221537066E+02    0.18349E-06   -0.14896E-07  1500   0.328E-03
   2 F= -.15322154E+02 E0= -.15321553E+02  d E =-.674655E-03
 trial-energy change:   -0.000675  1 .order   -0.000688   -0.002429    0.001052
 step:   0.6927(harm=  0.6977)  dis= 0.00000  next Energy=   -15.322316 (dE=-0.837E-03)
 bond charge predicted
       N       E                     dE             d eps       ncg     rms          rms(c)
DAV:   1    -0.153223304719E+02   -0.17658E-03   -0.14051E-03  2980   0.478E-01    0.254E-02
DAV:   2    -0.153223179205E+02    0.12551E-04   -0.19791E-05  3108   0.404E-02    0.131E-02
DAV:   3    -0.153223157788E+02    0.21417E-05   -0.48991E-06  3092   0.175E-02    0.373E-03
DAV:   4    -0.153223160093E+02   -0.23050E-06   -0.34245E-07  1464   0.488E-03
   3 F= -.15322316E+02 E0= -.15321723E+02  d E =-.836957E-03
 curvature:  -0.35 expect dE=-0.126E-04 dE for cont linesearch -0.144E-07
 ZBRENT: interpolating
 opt :   0.6956  next Energy=   -15.322316 (dE=-0.837E-03)
 bond charge predicted
       N       E                     dE             d eps       ncg     rms          rms(c)
DAV:   1    -0.153223160737E+02   -0.29482E-06   -0.14143E-07  1364   0.461E-03    0.303E-04
DAV:   2    -0.153223160645E+02    0.91972E-08   -0.61848E-09  1324   0.943E-04
   4 F= -.15322316E+02 E0= -.15321723E+02  d E =-.837013E-03
 curvature:  -0.35 expect dE=-0.129E-04 dE for cont linesearch -0.212E-09
 trial: gam= 0.01465 g(F)=  0.344E-51 g(S)=  0.368E-04 ort = 0.121E-05 (trialstep = 0.939E+00)
 search vector abs. value=  0.373E-04
 bond charge predicted
       N       E                     dE             d eps       ncg     rms          rms(c)
DAV:   1    -0.153223513560E+02   -0.35282E-04   -0.40808E-04  3144   0.179E-01    0.162E-02
DAV:   2    -0.153223372917E+02    0.14064E-04   -0.20723E-05  3272   0.369E-02    0.561E-03
DAV:   3    -0.153223358371E+02    0.14546E-05   -0.37341E-06  3224   0.144E-02    0.115E-03
DAV:   4    -0.153223357999E+02    0.37197E-07   -0.20699E-07  1452   0.401E-03
   5 F= -.15322336E+02 E0= -.15321748E+02  d E =-.197354E-04
 trial-energy change:   -0.000020  1 .order   -0.000020   -0.000035   -0.000006
 step:   1.1262(harm=  1.1262)  dis= 0.00000  next Energy=   -15.322337 (dE=-0.207E-04)
 reached required accuracy - stopping structural energy minimisation
