
     Program PWSCF v.6.6 starts on  2Apr2024 at  0: 6:10 

     This program is part of the open-source Quantum ESPRESSO suite
     for quantum simulation of materials; please cite
         "P. Giannozzi et al., J. Phys.:Condens. Matter 21 395502 (2009);
         "P. Giannozzi et al., J. Phys.:Condens. Matter 29 465901 (2017);
          URL http://www.quantum-espresso.org", 
     in publications or presentations arising from this work. More details at
     http://www.quantum-espresso.org/quote

     Parallel version (MPI), running on    24 processors

     MPI processes distributed on     1 nodes
     R & G space division:  proc/nbgrp/npool/nimage =      24
     Fft bands division:     nmany     =       1
     Waiting for input...
     Reading input from standard input

     Current dimensions of program PWSCF are:
     Max number of different atomic species (ntypx) = 10
     Max number of k-points (npk) = 250000
     Max angular momentum in pseudopotentials (lmaxx) =  3

     Subspace diagonalization in iterative solution of the eigenvalue problem:
     a serial algorithm will be used

     Message from routine setup:
     using ibrav=0 with symmetry is DISCOURAGED, use correct ibrav instead
 
     Parallelization info
     --------------------
     sticks:   dense  smooth     PW     G-vecs:    dense   smooth      PW
     Min          27      13      4                  639      225      41
     Max          28      14      5                  644      232      43
     Sum         649     313    109                15347     5449    1011
 


     bravais-lattice index     =            0
     lattice parameter (alat)  =       5.7988  a.u.
     unit-cell volume          =     193.5198 (a.u.)^3
     number of atoms/cell      =            3
     number of atomic types    =            2
     number of electrons       =        16.00
     number of Kohn-Sham states=           12
     kinetic-energy cutoff     =      35.0000  Ry
     charge density cutoff     =     280.0000  Ry
     convergence threshold     =      1.0E-16
     mixing beta               =       0.7000
     number of iterations used =            8  plain     mixing
     Exchange-correlation=  SLA  PW   PBX  PBC
                           (   1   4   3   4   0   0   0)
     nstep                     =          300


     celldm(1)=   5.798758  celldm(2)=   0.000000  celldm(3)=   0.000000
     celldm(4)=   0.000000  celldm(5)=   0.000000  celldm(6)=   0.000000

     crystal axes: (cart. coord. in units of alat)
               a(1) = (   0.500000  -0.866025   0.000000 )  
               a(2) = (   0.500000   0.866025   0.000000 )  
               a(3) = (   0.000000   0.000000   1.146014 )  

     reciprocal axes: (cart. coord. in units 2 pi/alat)
               b(1) = (  1.000000 -0.577350  0.000000 )  
               b(2) = (  1.000000  0.577350  0.000000 )  
               b(3) = (  0.000000  0.000000  0.872590 )  


     PseudoPot. # 1 for B  read from file:
     ../../pp/B.upf
     MD5 check sum: cc6de2960df11db49a60e589f9ebb39b
     Pseudo is Ultrasoft + core correction, Zval =  3.0
     Generated by new atomic code, or converted to UPF format
     Using radial grid of  781 points,  4 beta functions with: 
                l(1) =   0
                l(2) =   0
                l(3) =   1
                l(4) =   1
     Q(r) pseudized with  8 coefficients,  rinner =    1.100   1.100   1.100


     PseudoPot. # 2 for Mg read from file:
     ../../pp/Mg.upf
     MD5 check sum: 8ffbd8f729fef71095aac5bd8316fb1f
     Pseudo is Ultrasoft, Zval = 10.0
     Generated by new atomic code, or converted to UPF format
     Using radial grid of  821 points,  7 beta functions with: 
                l(1) =   0
                l(2) =   0
                l(3) =   0
                l(4) =   1
                l(5) =   1
                l(6) =   2
                l(7) =   2
     Q(r) pseudized with  8 coefficients,  rinner =    1.200   1.200   1.200
                                                       1.200   1.200

     atomic species   valence    mass     pseudopotential
        B              3.00    10.81100     B ( 1.00)
        Mg            10.00    24.30500     Mg( 1.00)

     24 Sym. Ops., with inversion, found



   Cartesian axes

     site n.     atom                  positions (alat units)
         1           Mg  tau(   1) = (   0.0000000   0.0000000   0.0000000  )
         2           B   tau(   2) = (   0.5000000  -0.2886757   0.5730071  )
         3           B   tau(   3) = (   0.5000000   0.2886757   0.5730071  )

     number of k points=   162  Gaussian smearing, width (Ry)=  0.0200

     Number of k-points >= 100: set verbosity='high' to print them.

     Dense  grid:    15347 G-vectors     FFT dimensions: (  32,  32,  36)

     Smooth grid:     5449 G-vectors     FFT dimensions: (  24,  24,  25)

     Estimated max dynamical RAM per process >      10.59 MB

     Estimated total dynamical RAM >     254.18 MB

     Initial potential from superposition of free atoms

     starting charge   15.69921, renormalised to   16.00000
     Starting wfcs are   13 randomized atomic wfcs

     total cpu time spent up to now is        0.4 secs

     Self-consistent Calculation

     iteration #  1     ecut=    35.00 Ry     beta= 0.70
     Davidson diagonalization with overlap
     ethr =  1.00E-02,  avg # of iterations =  3.8

     total cpu time spent up to now is        1.1 secs

     total energy              =    -138.00038732 Ry
     estimated scf accuracy    <       0.43926353 Ry

     iteration #  2     ecut=    35.00 Ry     beta= 0.70
     Davidson diagonalization with overlap
     ethr =  2.75E-03,  avg # of iterations =  2.2

     total cpu time spent up to now is        1.7 secs

     total energy              =    -138.12366903 Ry
     estimated scf accuracy    <       0.08009481 Ry

     iteration #  3     ecut=    35.00 Ry     beta= 0.70
     Davidson diagonalization with overlap
     ethr =  5.01E-04,  avg # of iterations =  2.1

     total cpu time spent up to now is        2.3 secs

     total energy              =    -138.13908912 Ry
     estimated scf accuracy    <       0.00085634 Ry

     iteration #  4     ecut=    35.00 Ry     beta= 0.70
     Davidson diagonalization with overlap
     ethr =  5.35E-06,  avg # of iterations =  4.7

     total cpu time spent up to now is        3.0 secs

     total energy              =    -138.13920480 Ry
     estimated scf accuracy    <       0.00003350 Ry

     iteration #  5     ecut=    35.00 Ry     beta= 0.70
     Davidson diagonalization with overlap
     ethr =  2.09E-07,  avg # of iterations =  2.0

     total cpu time spent up to now is        3.5 secs

     total energy              =    -138.13920807 Ry
     estimated scf accuracy    <       0.00000110 Ry

     iteration #  6     ecut=    35.00 Ry     beta= 0.70
     Davidson diagonalization with overlap
     ethr =  6.86E-09,  avg # of iterations =  2.0

     total cpu time spent up to now is        4.1 secs

     total energy              =    -138.13920845 Ry
     estimated scf accuracy    <       0.00000003 Ry

     iteration #  7     ecut=    35.00 Ry     beta= 0.70
     Davidson diagonalization with overlap
     ethr =  1.57E-10,  avg # of iterations =  2.7

     total cpu time spent up to now is        4.8 secs

     total energy              =    -138.13920846 Ry
     estimated scf accuracy    <          8.0E-10 Ry

     iteration #  8     ecut=    35.00 Ry     beta= 0.70
     Davidson diagonalization with overlap
     ethr =  5.02E-12,  avg # of iterations =  2.3

     total cpu time spent up to now is        5.4 secs

     total energy              =    -138.13920846 Ry
     estimated scf accuracy    <          6.7E-12 Ry

     iteration #  9     ecut=    35.00 Ry     beta= 0.70
     Davidson diagonalization with overlap
     ethr =  1.00E-13,  avg # of iterations =  2.6

     total cpu time spent up to now is        6.0 secs

     total energy              =    -138.13920846 Ry
     estimated scf accuracy    <          8.8E-13 Ry

     iteration # 10     ecut=    35.00 Ry     beta= 0.70
     Davidson diagonalization with overlap
     ethr =  1.00E-13,  avg # of iterations =  1.0

     total cpu time spent up to now is        6.4 secs

     total energy              =    -138.13920846 Ry
     estimated scf accuracy    <          1.6E-14 Ry

     iteration # 11     ecut=    35.00 Ry     beta= 0.70
     Davidson diagonalization with overlap
     ethr =  1.00E-13,  avg # of iterations =  1.0

     total cpu time spent up to now is        6.9 secs

     total energy              =    -138.13920846 Ry
     estimated scf accuracy    <          9.3E-16 Ry

     iteration # 12     ecut=    35.00 Ry     beta= 0.70
     Davidson diagonalization with overlap
     ethr =  1.00E-13,  avg # of iterations =  1.0

     total cpu time spent up to now is        7.4 secs

     End of self-consistent calculation

     Number of k-points >= 100: set verbosity='high' to print the bands.

     the Fermi energy is     9.1392 ev

!    total energy              =    -138.13920846 Ry
     estimated scf accuracy    <          6.7E-17 Ry
     smearing contrib. (-TS)   =      -0.00195119 Ry
     internal energy E=F+TS    =    -138.13725726 Ry

     The total energy is F=E-TS. E is the sum of the following terms:
     one-electron contribution =     -88.27339865 Ry
     hartree contribution      =      47.26049362 Ry
     xc contribution           =     -22.96175881 Ry
     ewald contribution        =     -74.16259342 Ry

     convergence has been achieved in  12 iterations

     Forces acting on atoms (cartesian axes, Ry/au):

     atom    1 type  2   force =     0.00000000    0.00000000    0.00000000
     atom    2 type  1   force =     0.00000000    0.00000000    0.00000000
     atom    3 type  1   force =    -0.00000000   -0.00000000    0.00000000

     Total force =     0.000000     Total SCF correction =     0.000000


     Computing stress (Cartesian axis) and pressure

          total   stress  (Ry/bohr**3)                   (kbar)     P=        0.27
   0.00000282   0.00000000   0.00000000            0.42        0.00        0.00
   0.00000000   0.00000282   0.00000000            0.00        0.42        0.00
  -0.00000000   0.00000000  -0.00000006           -0.00        0.00       -0.01


     BFGS Geometry Optimization

     number of scf cycles    =   1
     number of bfgs steps    =   0

     enthalpy new            =    -138.1392084565 Ry

     new trust radius        =       0.0001963756 bohr
     new conv_thr            =            1.0E-16 Ry

     new unit-cell volume =    193.54689 a.u.^3 (    28.68069 Ang^3 )
     density =      2.65906 g/cm^3

CELL_PARAMETERS (angstrom)
   1.534393520  -2.657647536  -0.000000000
   1.534393520   2.657647536   0.000000000
   0.000000000   0.000000000   3.516620209

ATOMIC_POSITIONS (crystal)
Mg            0.0000000000        0.0000000000        0.0000000000
B             0.6666670000        0.3333330000        0.5000000000
B             0.3333330000        0.6666670000        0.5000000000



     Writing output data file ./Mg1B2.save/
     NEW-OLD atomic charge density approx. for the potential
     extrapolated charge   16.00219, renormalised to   16.00000

     total cpu time spent up to now is        7.6 secs

     Self-consistent Calculation

     iteration #  1     ecut=    35.00 Ry     beta= 0.70
     Davidson diagonalization with overlap
     ethr =  1.00E-06,  avg # of iterations =  2.0

     Threshold (ethr) on eigenvalues was too large:
     Diagonalizing with lowered threshold

     Davidson diagonalization with overlap
     ethr =  2.51E-09,  avg # of iterations =  1.0

     total cpu time spent up to now is        8.6 secs

     total energy              =    -138.13920773 Ry
     estimated scf accuracy    <       0.00000040 Ry

     iteration #  2     ecut=    35.00 Ry     beta= 0.70
     Davidson diagonalization with overlap
     ethr =  2.48E-09,  avg # of iterations =  2.1

     total cpu time spent up to now is        9.2 secs

     total energy              =    -138.13920851 Ry
     estimated scf accuracy    <       0.00000052 Ry

     iteration #  3     ecut=    35.00 Ry     beta= 0.70
     Davidson diagonalization with overlap
     ethr =  2.48E-09,  avg # of iterations =  1.1

     total cpu time spent up to now is        9.7 secs

     total energy              =    -138.13920852 Ry
     estimated scf accuracy    <       0.00000010 Ry

     iteration #  4     ecut=    35.00 Ry     beta= 0.70
     Davidson diagonalization with overlap
     ethr =  6.10E-10,  avg # of iterations =  1.0

     total cpu time spent up to now is       10.1 secs

     total energy              =    -138.13920849 Ry
     estimated scf accuracy    <       0.00000005 Ry

     iteration #  5     ecut=    35.00 Ry     beta= 0.70
     Davidson diagonalization with overlap
     ethr =  2.87E-10,  avg # of iterations =  2.0

     total cpu time spent up to now is       10.7 secs

     total energy              =    -138.13920850 Ry
     estimated scf accuracy    <          1.7E-09 Ry

     iteration #  6     ecut=    35.00 Ry     beta= 0.70
     Davidson diagonalization with overlap
     ethr =  1.08E-11,  avg # of iterations =  2.0

     total cpu time spent up to now is       11.3 secs

     total energy              =    -138.13920850 Ry
     estimated scf accuracy    <          7.4E-12 Ry

     iteration #  7     ecut=    35.00 Ry     beta= 0.70
     Davidson diagonalization with overlap
     ethr =  1.00E-13,  avg # of iterations =  2.1

     total cpu time spent up to now is       11.8 secs

     total energy              =    -138.13920850 Ry
     estimated scf accuracy    <          3.4E-11 Ry

     iteration #  8     ecut=    35.00 Ry     beta= 0.70
     Davidson diagonalization with overlap
     ethr =  1.00E-13,  avg # of iterations =  2.0

     total cpu time spent up to now is       12.4 secs

     total energy              =    -138.13920850 Ry
     estimated scf accuracy    <          1.7E-12 Ry

     iteration #  9     ecut=    35.00 Ry     beta= 0.70
     Davidson diagonalization with overlap
     ethr =  1.00E-13,  avg # of iterations =  1.0

     total cpu time spent up to now is       12.9 secs

     total energy              =    -138.13920850 Ry
     estimated scf accuracy    <          9.4E-16 Ry

     iteration # 10     ecut=    35.00 Ry     beta= 0.70
     Davidson diagonalization with overlap
     ethr =  1.00E-13,  avg # of iterations =  1.0

     total cpu time spent up to now is       13.3 secs

     total energy              =    -138.13920850 Ry
     estimated scf accuracy    <          6.4E-15 Ry

     iteration # 11     ecut=    35.00 Ry     beta= 0.70
     Davidson diagonalization with overlap
     ethr =  1.00E-13,  avg # of iterations =  1.0

     total cpu time spent up to now is       13.8 secs

     End of self-consistent calculation

     Number of k-points >= 100: set verbosity='high' to print the bands.

     the Fermi energy is     9.1376 ev

!    total energy              =    -138.13920850 Ry
     estimated scf accuracy    <          4.0E-17 Ry
     smearing contrib. (-TS)   =      -0.00195175 Ry
     internal energy E=F+TS    =    -138.13725675 Ry

     The total energy is F=E-TS. E is the sum of the following terms:
     one-electron contribution =     -88.27869725 Ry
     hartree contribution      =      47.26211233 Ry
     xc contribution           =     -22.96150249 Ry
     ewald contribution        =     -74.15916935 Ry

     convergence has been achieved in  11 iterations

     Forces acting on atoms (cartesian axes, Ry/au):

     atom    1 type  2   force =     0.00000000    0.00000000    0.00000000
     atom    2 type  1   force =    -0.00000000    0.00000000    0.00000000
     atom    3 type  1   force =     0.00000000   -0.00000000    0.00000000

     Total force =     0.000000     Total SCF correction =     0.000000


     Computing stress (Cartesian axis) and pressure

          total   stress  (Ry/bohr**3)                   (kbar)     P=        0.01
   0.00000036  -0.00000000  -0.00000000            0.05       -0.00       -0.00
   0.00000000   0.00000036   0.00000000            0.00        0.05        0.00
   0.00000000  -0.00000000  -0.00000043            0.00       -0.00       -0.06


     number of scf cycles    =   2
     number of bfgs steps    =   1

     enthalpy old            =    -138.1392084565 Ry
     enthalpy new            =    -138.1392085001 Ry

     CASE: enthalpy_new < enthalpy_old

     small trust_radius: resetting bfgs history

     new trust radius        =       0.0000301829 bohr
     new conv_thr            =            1.0E-18 Ry

     new unit-cell volume =    193.54823 a.u.^3 (    28.68089 Ang^3 )
     density =      2.65904 g/cm^3

CELL_PARAMETERS (angstrom)
   1.534407154  -2.657671150   0.000000000
   1.534407154   2.657671150  -0.000000000
  -0.000000000   0.000000000   3.516582062

ATOMIC_POSITIONS (crystal)
Mg            0.0000000000        0.0000000000        0.0000000000
B             0.6666670000        0.3333330000        0.5000000000
B             0.3333330000        0.6666670000        0.5000000000



     Writing output data file ./Mg1B2.save/
     NEW-OLD atomic charge density approx. for the potential
     extrapolated charge   16.00011, renormalised to   16.00000

     total cpu time spent up to now is       14.0 secs

     Self-consistent Calculation

     iteration #  1     ecut=    35.00 Ry     beta= 0.70
     Davidson diagonalization with overlap
     ethr =  1.00E-06,  avg # of iterations =  2.0

     Threshold (ethr) on eigenvalues was too large:
     Diagonalizing with lowered threshold

     Davidson diagonalization with overlap
     ethr =  5.74E-12,  avg # of iterations =  2.0

     total cpu time spent up to now is       15.0 secs

     total energy              =    -138.13920850 Ry
     estimated scf accuracy    <          8.9E-10 Ry

     iteration #  2     ecut=    35.00 Ry     beta= 0.70
     Davidson diagonalization with overlap
     ethr =  5.59E-12,  avg # of iterations =  2.2

     total cpu time spent up to now is       15.7 secs

     total energy              =    -138.13920850 Ry
     estimated scf accuracy    <          1.2E-09 Ry

     iteration #  3     ecut=    35.00 Ry     beta= 0.70
     Davidson diagonalization with overlap
     ethr =  5.59E-12,  avg # of iterations =  1.1

     total cpu time spent up to now is       16.1 secs

     total energy              =    -138.13920850 Ry
     estimated scf accuracy    <          2.4E-10 Ry

     iteration #  4     ecut=    35.00 Ry     beta= 0.70
     Davidson diagonalization with overlap
     ethr =  1.48E-12,  avg # of iterations =  1.0

     total cpu time spent up to now is       16.6 secs

     total energy              =    -138.13920850 Ry
     estimated scf accuracy    <          8.6E-11 Ry

     iteration #  5     ecut=    35.00 Ry     beta= 0.70
     Davidson diagonalization with overlap
     ethr =  5.38E-13,  avg # of iterations =  2.0

     total cpu time spent up to now is       17.1 secs

     total energy              =    -138.13920850 Ry
     estimated scf accuracy    <          3.0E-13 Ry

     iteration #  6     ecut=    35.00 Ry     beta= 0.70
     Davidson diagonalization with overlap
     ethr =  1.00E-13,  avg # of iterations =  1.0

     total cpu time spent up to now is       17.6 secs

     total energy              =    -138.13920850 Ry
     estimated scf accuracy    <          9.8E-14 Ry

     iteration #  7     ecut=    35.00 Ry     beta= 0.70
     Davidson diagonalization with overlap
     ethr =  1.00E-13,  avg # of iterations =  1.0

     total cpu time spent up to now is       18.1 secs

     total energy              =    -138.13920850 Ry
     estimated scf accuracy    <          4.5E-15 Ry

     iteration #  8     ecut=    35.00 Ry     beta= 0.70
     Davidson diagonalization with overlap
     ethr =  1.00E-13,  avg # of iterations =  1.0

     total cpu time spent up to now is       18.5 secs

     total energy              =    -138.13920850 Ry
     estimated scf accuracy    <          7.0E-15 Ry

     iteration #  9     ecut=    35.00 Ry     beta= 0.70
     Davidson diagonalization with overlap
     ethr =  1.00E-13,  avg # of iterations =  1.0

     total cpu time spent up to now is       19.0 secs

     total energy              =    -138.13920850 Ry
     estimated scf accuracy    <          1.5E-16 Ry

     iteration # 10     ecut=    35.00 Ry     beta= 0.70
     Davidson diagonalization with overlap
     ethr =  1.00E-13,  avg # of iterations =  1.0

     total cpu time spent up to now is       19.4 secs

     total energy              =    -138.13920850 Ry
     estimated scf accuracy    <          1.2E-17 Ry

     iteration # 11     ecut=    35.00 Ry     beta= 0.70
     Davidson diagonalization with overlap
     ethr =  1.00E-13,  avg # of iterations =  1.0

     total cpu time spent up to now is       19.9 secs

     End of self-consistent calculation

     Number of k-points >= 100: set verbosity='high' to print the bands.

     the Fermi energy is     9.1376 ev

!    total energy              =    -138.13920850 Ry
     estimated scf accuracy    <          5.5E-19 Ry
     smearing contrib. (-TS)   =      -0.00195185 Ry
     internal energy E=F+TS    =    -138.13725665 Ry

     The total energy is F=E-TS. E is the sum of the following terms:
     one-electron contribution =     -88.27896909 Ry
     hartree contribution      =      47.26220319 Ry
     xc contribution           =     -22.96148399 Ry
     ewald contribution        =     -74.15900676 Ry

     convergence has been achieved in  11 iterations

     Forces acting on atoms (cartesian axes, Ry/au):

     atom    1 type  2   force =     0.00000000    0.00000000    0.00000000
     atom    2 type  1   force =     0.00000000    0.00000000    0.00000000
     atom    3 type  1   force =     0.00000000    0.00000000    0.00000000

     Total force =     0.000000     Total SCF correction =     0.000000


     Computing stress (Cartesian axis) and pressure

          total   stress  (Ry/bohr**3)                   (kbar)     P=       -0.01
   0.00000008  -0.00000000   0.00000000            0.01       -0.00        0.00
   0.00000000   0.00000008  -0.00000000            0.00        0.01       -0.00
   0.00000000   0.00000000  -0.00000027            0.00        0.00       -0.04


     bfgs converged in   3 scf cycles and   2 bfgs steps
     (criteria: energy <  1.0E-05 Ry, force <  1.0E-04Ry/Bohr, cell <  5.0E-02kbar)

     End of BFGS Geometry Optimization

     Final enthalpy =    -138.1392085015 Ry

     File ./Mg1B2.bfgs deleted, as requested
Begin final coordinates
     new unit-cell volume =    193.54823 a.u.^3 (    28.68089 Ang^3 )
     density =      2.65904 g/cm^3

CELL_PARAMETERS (angstrom)
   1.534407154  -2.657671150   0.000000000
   1.534407154   2.657671150  -0.000000000
  -0.000000000   0.000000000   3.516582062

ATOMIC_POSITIONS (crystal)
Mg            0.0000000000        0.0000000000        0.0000000000
B             0.6666670000        0.3333330000        0.5000000000
B             0.3333330000        0.6666670000        0.5000000000
End final coordinates



     Writing output data file ./Mg1B2.save/

     Final scf calculation at the relaxed structure.
     The G-vectors are recalculated for the final unit cell
     Results may differ from those at the preceding step.
 
     Parallelization info
     --------------------
     sticks:   dense  smooth     PW     G-vecs:    dense   smooth      PW
     Min          27      13      4                  639      225      41
     Max          28      14      5                  644      232      43
     Sum         649     313    109                15347     5449    1011
 


     bravais-lattice index     =            0
     lattice parameter (alat)  =       5.7988  a.u.
     unit-cell volume          =     193.5482 (a.u.)^3
     number of atoms/cell      =            3
     number of atomic types    =            2
     number of electrons       =        16.00
     number of Kohn-Sham states=           12
     kinetic-energy cutoff     =      35.0000  Ry
     charge density cutoff     =     280.0000  Ry
     convergence threshold     =      1.0E-18
     mixing beta               =       0.7000
     number of iterations used =            8  plain     mixing
     Exchange-correlation=  SLA  PW   PBX  PBC
                           (   1   4   3   4   0   0   0)

     celldm(1)=   5.798758  celldm(2)=   0.000000  celldm(3)=   0.000000
     celldm(4)=   0.000000  celldm(5)=   0.000000  celldm(6)=   0.000000

     crystal axes: (cart. coord. in units of alat)
               a(1) = (   0.500040  -0.866094   0.000000 )  
               a(2) = (   0.500040   0.866094  -0.000000 )  
               a(3) = (  -0.000000   0.000000   1.146000 )  

     reciprocal axes: (cart. coord. in units 2 pi/alat)
               b(1) = (  0.999921 -0.577304  0.000000 )  
               b(2) = (  0.999921  0.577304  0.000000 )  
               b(3) = ( -0.000000  0.000000  0.872600 )  


     PseudoPot. # 1 for B  read from file:
     ../../pp/B.upf
     MD5 check sum: cc6de2960df11db49a60e589f9ebb39b
     Pseudo is Ultrasoft + core correction, Zval =  3.0
     Generated by new atomic code, or converted to UPF format
     Using radial grid of  781 points,  4 beta functions with: 
                l(1) =   0
                l(2) =   0
                l(3) =   1
                l(4) =   1
     Q(r) pseudized with  8 coefficients,  rinner =    1.100   1.100   1.100


     PseudoPot. # 2 for Mg read from file:
     ../../pp/Mg.upf
     MD5 check sum: 8ffbd8f729fef71095aac5bd8316fb1f
     Pseudo is Ultrasoft, Zval = 10.0
     Generated by new atomic code, or converted to UPF format
     Using radial grid of  821 points,  7 beta functions with: 
                l(1) =   0
                l(2) =   0
                l(3) =   0
                l(4) =   1
                l(5) =   1
                l(6) =   2
                l(7) =   2
     Q(r) pseudized with  8 coefficients,  rinner =    1.200   1.200   1.200
                                                       1.200   1.200

     atomic species   valence    mass     pseudopotential
        B              3.00    10.81100     B ( 1.00)
        Mg            10.00    24.30500     Mg( 1.00)

     24 Sym. Ops., with inversion, found



   Cartesian axes

     site n.     atom                  positions (alat units)
         1           Mg  tau(   1) = (   0.0000000   0.0000000   0.0000000  )
         2           B   tau(   2) = (   0.5000397  -0.2886987   0.5730001  )
         3           B   tau(   3) = (   0.5000397   0.2886987   0.5730001  )

     number of k points=   162  Gaussian smearing, width (Ry)=  0.0200

     Number of k-points >= 100: set verbosity='high' to print them.

     Dense  grid:    15347 G-vectors     FFT dimensions: (  32,  32,  36)

     Smooth grid:     5449 G-vectors     FFT dimensions: (  24,  24,  25)

     Estimated max dynamical RAM per process >      10.60 MB

     Estimated total dynamical RAM >     254.42 MB

     Initial potential from superposition of free atoms

     starting charge   15.69921, renormalised to   16.00000
     Starting wfcs are   13 randomized atomic wfcs

     total cpu time spent up to now is       20.3 secs

     Self-consistent Calculation

     iteration #  1     ecut=    35.00 Ry     beta= 0.70
     Davidson diagonalization with overlap
     c_bands:  1 eigenvalues not converged
     c_bands:  1 eigenvalues not converged
     c_bands:  1 eigenvalues not converged
     c_bands:  1 eigenvalues not converged
     c_bands:  1 eigenvalues not converged
     c_bands:  1 eigenvalues not converged
     ethr =  1.00E-06,  avg # of iterations = 12.9

     total cpu time spent up to now is       22.1 secs

     total energy              =    -138.00600426 Ry
     estimated scf accuracy    <       0.43616577 Ry

     iteration #  2     ecut=    35.00 Ry     beta= 0.70
     Davidson diagonalization with overlap
     ethr =  2.73E-03,  avg # of iterations =  2.1

     total cpu time spent up to now is       22.7 secs

     total energy              =    -138.12387051 Ry
     estimated scf accuracy    <       0.07847448 Ry

     iteration #  3     ecut=    35.00 Ry     beta= 0.70
     Davidson diagonalization with overlap
     ethr =  4.90E-04,  avg # of iterations =  2.0

     total cpu time spent up to now is       23.3 secs

     total energy              =    -138.13912213 Ry
     estimated scf accuracy    <       0.00076633 Ry

     iteration #  4     ecut=    35.00 Ry     beta= 0.70
     Davidson diagonalization with overlap
     ethr =  4.79E-06,  avg # of iterations =  3.7

     total cpu time spent up to now is       23.9 secs

     total energy              =    -138.13920866 Ry
     estimated scf accuracy    <       0.00002784 Ry

     iteration #  5     ecut=    35.00 Ry     beta= 0.70
     Davidson diagonalization with overlap
     ethr =  1.74E-07,  avg # of iterations =  1.7

     total cpu time spent up to now is       24.4 secs

     total energy              =    -138.13921036 Ry
     estimated scf accuracy    <       0.00000091 Ry

     iteration #  6     ecut=    35.00 Ry     beta= 0.70
     Davidson diagonalization with overlap
     ethr =  5.71E-09,  avg # of iterations =  2.0

     total cpu time spent up to now is       25.0 secs

     total energy              =    -138.13921064 Ry
     estimated scf accuracy    <       0.00000002 Ry

     iteration #  7     ecut=    35.00 Ry     beta= 0.70
     Davidson diagonalization with overlap
     ethr =  1.30E-10,  avg # of iterations =  2.1

     total cpu time spent up to now is       25.6 secs

     total energy              =    -138.13921065 Ry
     estimated scf accuracy    <          2.7E-10 Ry

     iteration #  8     ecut=    35.00 Ry     beta= 0.70
     Davidson diagonalization with overlap
     ethr =  1.72E-12,  avg # of iterations =  2.7

     total cpu time spent up to now is       26.2 secs

     total energy              =    -138.13921065 Ry
     estimated scf accuracy    <          5.6E-12 Ry

     iteration #  9     ecut=    35.00 Ry     beta= 0.70
     Davidson diagonalization with overlap
     ethr =  1.00E-13,  avg # of iterations =  2.0

     total cpu time spent up to now is       26.8 secs

     total energy              =    -138.13921065 Ry
     estimated scf accuracy    <          1.4E-12 Ry

     iteration # 10     ecut=    35.00 Ry     beta= 0.70
     Davidson diagonalization with overlap
     ethr =  1.00E-13,  avg # of iterations =  1.0

     total cpu time spent up to now is       27.2 secs

     total energy              =    -138.13921065 Ry
     estimated scf accuracy    <          5.1E-15 Ry

     iteration # 11     ecut=    35.00 Ry     beta= 0.70
     Davidson diagonalization with overlap
     ethr =  1.00E-13,  avg # of iterations =  1.0

     total cpu time spent up to now is       27.7 secs

     total energy              =    -138.13921065 Ry
     estimated scf accuracy    <          1.5E-16 Ry

     iteration # 12     ecut=    35.00 Ry     beta= 0.70
     Davidson diagonalization with overlap
     ethr =  1.00E-13,  avg # of iterations =  1.0

     total cpu time spent up to now is       28.1 secs

     total energy              =    -138.13921065 Ry
     estimated scf accuracy    <          1.7E-16 Ry

     iteration # 13     ecut=    35.00 Ry     beta= 0.70
     Davidson diagonalization with overlap
     ethr =  1.00E-13,  avg # of iterations =  1.0

     total cpu time spent up to now is       28.6 secs

     total energy              =    -138.13921065 Ry
     estimated scf accuracy    <          1.3E-17 Ry

     iteration # 14     ecut=    35.00 Ry     beta= 0.70
     Davidson diagonalization with overlap
     ethr =  1.00E-13,  avg # of iterations =  1.0

     total cpu time spent up to now is       29.0 secs

     End of self-consistent calculation

     Number of k-points >= 100: set verbosity='high' to print the bands.

     the Fermi energy is     9.1376 ev

!    total energy              =    -138.13921065 Ry
     estimated scf accuracy    <          8.0E-19 Ry
     smearing contrib. (-TS)   =      -0.00195185 Ry
     internal energy E=F+TS    =    -138.13725880 Ry

     The total energy is F=E-TS. E is the sum of the following terms:
     one-electron contribution =     -88.27898427 Ry
     hartree contribution      =      47.26222039 Ry
     xc contribution           =     -22.96148816 Ry
     ewald contribution        =     -74.15900676 Ry

     convergence has been achieved in  14 iterations

     Forces acting on atoms (cartesian axes, Ry/au):

     atom    1 type  2   force =     0.00000000    0.00000000    0.00000000
     atom    2 type  1   force =     0.00000000   -0.00000000    0.00000000
     atom    3 type  1   force =    -0.00000000   -0.00000000   -0.00000000

     Total force =     0.000000     Total SCF correction =     0.000000


     Computing stress (Cartesian axis) and pressure

          total   stress  (Ry/bohr**3)                   (kbar)     P=        0.02
   0.00000027  -0.00000000  -0.00000000            0.04       -0.00       -0.00
  -0.00000000   0.00000027   0.00000000           -0.00        0.04        0.00
   0.00000000  -0.00000000  -0.00000023            0.00       -0.00       -0.03


     Writing output data file ./Mg1B2.save/
 
     init_run     :      0.48s CPU      0.56s WALL (       2 calls)
     electrons    :     26.03s CPU     27.89s WALL (       4 calls)
     update_pot   :      0.05s CPU      0.05s WALL (       2 calls)
     forces       :      0.19s CPU      0.19s WALL (       4 calls)
     stress       :      0.35s CPU      0.35s WALL (       4 calls)

     Called by init_run:
     wfcinit      :      0.36s CPU      0.39s WALL (       2 calls)
     potinit      :      0.01s CPU      0.01s WALL (       2 calls)
     hinit0       :      0.10s CPU      0.14s WALL (       2 calls)

     Called by electrons:
     c_bands      :     22.22s CPU     23.76s WALL (      50 calls)
     sum_band     :      3.63s CPU      3.93s WALL (      50 calls)
     v_of_rho     :      0.06s CPU      0.06s WALL (      52 calls)
     newd         :      0.09s CPU      0.09s WALL (      52 calls)
     mix_rho      :      0.02s CPU      0.02s WALL (      50 calls)

     Called by c_bands:
     init_us_2    :      0.21s CPU      0.22s WALL (   17820 calls)
     cegterg      :     21.42s CPU     22.90s WALL (    8100 calls)

     Called by *egterg:
     cdiaghg      :      3.80s CPU      4.04s WALL (   23369 calls)
     h_psi        :     15.89s CPU     17.02s WALL (   24341 calls)
     s_psi        :      0.16s CPU      0.18s WALL (   24341 calls)
     g_psi        :      0.02s CPU      0.03s WALL (   15917 calls)

     Called by h_psi:
     h_psi:calbec :      0.68s CPU      0.73s WALL (   24341 calls)
     vloc_psi     :     14.91s CPU     15.97s WALL (   24341 calls)
     add_vuspsi   :      0.19s CPU      0.21s WALL (   24341 calls)

     General routines
     calbec       :      0.96s CPU      1.03s WALL (   35681 calls)
     fft          :      0.08s CPU      0.12s WALL (     772 calls)
     ffts         :      0.01s CPU      0.01s WALL (     102 calls)
     fftw         :     17.01s CPU     18.29s WALL (  563996 calls)
     interpolate  :      0.01s CPU      0.01s WALL (      52 calls)
 
     Parallel routines
     fft_scatt_xy :      1.07s CPU      1.13s WALL (  564870 calls)
     fft_scatt_yz :      8.69s CPU      9.34s WALL (  564870 calls)
 
     PWSCF        :     27.51s CPU     29.82s WALL

 
   This run was terminated on:   0: 6:40   2Apr2024            

=------------------------------------------------------------------------------=
   JOB DONE.
=------------------------------------------------------------------------------=
