 vasp.5.4.1 24Jun15 (build Sep 20 2023 02:35:02) complex                        
  
 executed on           IFC91_ompi date 2024.04.17  16:47:35
 running on   24 total cores
 distrk:  each k-point on   24 cores,    1 groups
 distr:  one band on NCORES_PER_BAND=  12 cores,    2 groups


--------------------------------------------------------------------------------------------------------


 INCAR:
 POTCAR:    PAW_PBE Mg 13Apr2007                  
 POTCAR:    PAW_PBE B 06Sep2000                   

 ----------------------------------------------------------------------------- 
|                                                                             |
|           W    W    AA    RRRRR   N    N  II  N    N   GGGG   !!!           |
|           W    W   A  A   R    R  NN   N  II  NN   N  G    G  !!!           |
|           W    W  A    A  R    R  N N  N  II  N N  N  G       !!!           |
|           W WW W  AAAAAA  RRRRR   N  N N  II  N  N N  G  GGG   !            |
|           WW  WW  A    A  R   R   N   NN  II  N   NN  G    G                |
|           W    W  A    A  R    R  N    N  II  N    N   GGGG   !!!           |
|                                                                             |
|      For optimal performance we recommend to set                            |
|        NCORE= 4 - approx SQRT( number of cores)                             |
|      NCORE specifies how many cores store one orbital (NPAR=cpu/NCORE).     |
|      This setting can  greatly improve the performance of VASP for DFT.     |
|      The default, NPAR=number of cores might be grossly inefficient         |
|      on modern multi-core architectures or massively parallel machines.     |
|      Do your own testing !!!!                                               |
|      Unfortunately you need to use the default for GW and RPA calculations. |
|      (for HF NCORE is supported but not extensively tested yet)             |
|                                                                             |
 ----------------------------------------------------------------------------- 

 POTCAR:    PAW_PBE Mg 13Apr2007                  
   VRHFIN =Mg: s2p0                                                             
   LEXCH  = PE                                                                  
   EATOM  =    23.0369 eV,    1.6932 Ry                                         
                                                                                
   TITEL  = PAW_PBE Mg 13Apr2007                                                
   LULTRA =        F    use ultrasoft PP ?                                      
   IUNSCR =        1    unscreen: 0-lin 1-nonlin 2-no                           
   RPACOR =    1.500    partial core radius                                     
   POMASS =   24.305; ZVAL   =    2.000    mass and valenz                      
   RCORE  =    2.000    outmost cutoff radius                                   
   RWIGS  =    2.880; RWIGS  =    1.524    wigner-seitz radius (au A)           
   ENMAX  =  126.143; ENMIN  =   94.607 eV                                      
   RCLOC  =    1.506    cutoff for local pot                                    
   LCOR   =        T    correct aug charges                                     
   LPAW   =        T    paw PP                                                  
   EAUG   =  454.734                                                            
   DEXC   =    0.000                                                            
   RMAX   =    2.045    core radius for proj-oper                               
   RAUG   =    1.300    factor for augmentation sphere                          
   RDEP   =    2.025    radius for radial grids                                 
   RDEPT  =    1.942    core radius for aug-charge                              
                                                                                
   Atomic configuration                                                         
    6 entries                                                                   
     n  l   j            E        occ.                                          
     1  0  0.50     -1259.6230   2.0000                                         
     2  0  0.50       -79.8442   2.0000                                         
     2  1  1.50       -46.6121   6.0000                                         
     3  0  0.50        -4.7055   2.0000                                         
     3  1  0.50        -1.3660   0.0000                                         
     3  2  1.50        -1.3606   0.0000                                         
   Description                                                                  
     l       E           TYP  RCUT    TYP  RCUT                                 
     0     -4.7054661     23  2.000                                             
     0     27.2116520     23  2.000                                             
     1      1.3605826     23  2.000                                             
     1     27.2116520     23  2.000                                             
     2     -1.3605826     23  2.000                                             
  local pseudopotential read in
  partial core-charges read in
  partial kinetic energy density read in
  atomic valenz-charges read in
  non local Contribution for L=           0  read in
    real space projection operators read in
  non local Contribution for L=           0  read in
    real space projection operators read in
  non local Contribution for L=           1  read in
    real space projection operators read in
  non local Contribution for L=           1  read in
    real space projection operators read in
  non local Contribution for L=           2  read in
    real space projection operators read in
    PAW grid and wavefunctions read in
 
   number of l-projection  operators is LMAX  =           5
   number of lm-projection operators is LMMAX =          13
 
 POTCAR:    PAW_PBE B 06Sep2000                   
   VRHFIN =B: s2p1                                                              
   LEXCH  = PE                                                                  
   EATOM  =    71.1703 eV,    5.2309 Ry                                         
                                                                                
   TITEL  = PAW_PBE B 06Sep2000                                                 
   LULTRA =        F    use ultrasoft PP ?                                      
   IUNSCR =        1    unscreen: 0-lin 1-nonlin 2-no                           
   RPACOR =    1.200    partial core radius                                     
   POMASS =   10.811; ZVAL   =    3.000    mass and valenz                      
   RCORE  =    1.700    outmost cutoff radius                                   
   RWIGS  =    1.710; RWIGS  =    0.905    wigner-seitz radius (au A)           
   ENMAX  =  318.614; ENMIN  =  238.960 eV                                      
   ICORE  =        2    local potential                                         
   LCOR   =        T    correct aug charges                                     
   LPAW   =        T    paw PP                                                  
   EAUG   =  535.514                                                            
   DEXC   =    0.000                                                            
   RMAX   =    1.732    core radius for proj-oper                               
   RAUG   =    1.300    factor for augmentation sphere                          
   RDEP   =    1.757    radius for radial grids                                 
   RDEPT  =    1.436    core radius for aug-charge                              
                                                                                
   Atomic configuration                                                         
    4 entries                                                                   
     n  l   j            E        occ.                                          
     1  0  0.50      -180.5896   2.0000                                         
     2  0  0.50        -9.4431   2.0000                                         
     2  1  0.50        -3.6068   1.0000                                         
     3  2  1.50        -4.0817   0.0000                                         
   Description                                                                  
     l       E           TYP  RCUT    TYP  RCUT                                 
     0     -9.4430752     23  1.500                                             
     0      0.8675899     23  1.500                                             
     1     -3.6067955     23  1.700                                             
     1      6.1086146     23  1.700                                             
     2     -4.0817478      7  1.700                                             
  local pseudopotential read in
  partial core-charges read in
  partial kinetic energy density read in
  atomic valenz-charges read in
  non local Contribution for L=           0  read in
    real space projection operators read in
  non local Contribution for L=           0  read in
    real space projection operators read in
  non local Contribution for L=           1  read in
    real space projection operators read in
  non local Contribution for L=           1  read in
    real space projection operators read in
    PAW grid and wavefunctions read in
 
   number of l-projection  operators is LMAX  =           4
   number of lm-projection operators is LMMAX =           8
 
  PAW_PBE Mg 13Apr2007                  :
 energy of atom  1       EATOM=  -23.0369
 kinetic energy error for atom=    0.0000 (will be added to EATOM!!)
  PAW_PBE B 06Sep2000                   :
 energy of atom  2       EATOM=  -71.1703
 kinetic energy error for atom=    0.0007 (will be added to EATOM!!)
 
 
 POSCAR: Mg1 B2                                  
  positions in direct lattice
  velocities in cartesian coordinates
 exchange correlation table for  LEXCH =        8
   RHO(1)=    0.500       N(1)  =     2000
   RHO(2)=  100.500       N(2)  =     4000
 


--------------------------------------------------------------------------------------------------------


 ion  position               nearest neighbor table
   1  0.000  0.000  0.000-   2 2.50   2 2.50   3 2.50   3 2.50   2 2.50   2 2.50   3 2.50   3 2.50
                             2 2.50   3 2.50   2 2.50   3 2.50
   2  0.667  0.333  0.500-   3 1.77   3 1.77   3 1.77   1 2.50   1 2.50   1 2.50   1 2.50   1 2.50
                             1 2.50
   3  0.333  0.667  0.500-   2 1.77   2 1.77   2 1.77   1 2.50   1 2.50   1 2.50   1 2.50   1 2.50
                             1 2.50
 
  LATTYP: Found a hexagonal cell.
 ALAT       =     3.0710685232
 C/A-ratio  =     1.1491512505
  
  Lattice vectors:
  
 A1 = (   1.5355342616,  -2.6596233579,   0.0000000000)
 A2 = (   1.5355342616,   2.6596233579,   0.0000000000)
 A3 = (   0.0000000000,   0.0000000000,   3.5291222337)


Analysis of symmetry for initial positions (statically):
=====================================================================
 Subroutine PRICEL returns:
 Original cell was already a primitive cell.
 

 Routine SETGRP: Setting up the symmetry group for a 
 hexagonal supercell.


 Subroutine GETGRP returns: Found 24 space group operations
 (whereof 24 operations were pure point group operations)
 out of a pool of 24 trial point group operations.


The static configuration has the point symmetry D_6h.


Analysis of symmetry for dynamics (positions and initial velocities):
=====================================================================
 Subroutine PRICEL returns:
 Original cell was already a primitive cell.
 

 Routine SETGRP: Setting up the symmetry group for a 
 hexagonal supercell.


 Subroutine GETGRP returns: Found 24 space group operations
 (whereof 24 operations were pure point group operations)
 out of a pool of 24 trial point group operations.


The dynamic configuration has the point symmetry D_6h.
 
 
 KPOINTS: KPOINTS automatic                       

Automatic generation of k-mesh.
Space group operators:
 irot       det(A)        alpha          n_x          n_y          n_z        tau_x        tau_y        tau_z
    1     1.000000     0.000001     1.000000     0.000000     0.000000     0.000000     0.000000     0.000000
    2    -1.000000     0.000001     1.000000     0.000000     0.000000     0.000000     0.000000     0.000000
    3     1.000000    60.000000     0.000000     0.000000    -1.000000     0.000000     0.000000     0.000000
    4    -1.000000    60.000000     0.000000     0.000000    -1.000000     0.000000     0.000000     0.000000
    5     1.000000   120.000000     0.000000     0.000000    -1.000000     0.000000     0.000000     0.000000
    6    -1.000000   120.000000     0.000000     0.000000    -1.000000     0.000000     0.000000     0.000000
    7     1.000000   180.000000     0.000000     0.000000     1.000000     0.000000     0.000000     0.000000
    8    -1.000000   180.000000     0.000000     0.000000     1.000000     0.000000     0.000000     0.000000
    9     1.000000   120.000000     0.000000     0.000000     1.000000     0.000000     0.000000     0.000000
   10    -1.000000   120.000000     0.000000     0.000000     1.000000     0.000000     0.000000     0.000000
   11     1.000000    60.000000     0.000000     0.000000     1.000000     0.000000     0.000000     0.000000
   12    -1.000000    60.000000     0.000000     0.000000     1.000000     0.000000     0.000000     0.000000
   13     1.000000   180.000000     0.500000    -0.866025     0.000000     0.000000     0.000000     0.000000
   14    -1.000000   180.000000     0.500000    -0.866025     0.000000     0.000000     0.000000     0.000000
   15     1.000000   179.999999     0.000000     1.000000     0.000000     0.000000     0.000000     0.000000
   16    -1.000000   179.999999     0.000000     1.000000     0.000000     0.000000     0.000000     0.000000
   17     1.000000   180.000000    -0.500000    -0.866025     0.000000     0.000000     0.000000     0.000000
   18    -1.000000   180.000000    -0.500000    -0.866025     0.000000     0.000000     0.000000     0.000000
   19     1.000000   180.000000     0.866025     0.500000     0.000000     0.000000     0.000000     0.000000
   20    -1.000000   180.000000     0.866025     0.500000     0.000000     0.000000     0.000000     0.000000
   21     1.000000   180.000000     1.000000     0.000000     0.000000     0.000000     0.000000     0.000000
   22    -1.000000   180.000000     1.000000     0.000000     0.000000     0.000000     0.000000     0.000000
   23     1.000000   180.000000     0.866025    -0.500000     0.000000     0.000000     0.000000     0.000000
   24    -1.000000   180.000000     0.866025    -0.500000     0.000000     0.000000     0.000000     0.000000
 
 Subroutine IBZKPT returns following result:
 ===========================================
 
 Found    162 irreducible k-points:
 
 Following reciprocal coordinates:
            Coordinates               Weight
  0.000000  0.000000  0.000000      1.000000
  0.066667 -0.000000  0.000000      6.000000
  0.133333 -0.000000  0.000000      6.000000
  0.200000 -0.000000  0.000000      6.000000
  0.266667  0.000000  0.000000      6.000000
  0.333333 -0.000000  0.000000      6.000000
  0.400000 -0.000000  0.000000      6.000000
  0.466667 -0.000000  0.000000      6.000000
  0.066667  0.066667  0.000000      6.000000
  0.133333  0.066667  0.000000     12.000000
  0.200000  0.066667  0.000000     12.000000
  0.266667  0.066667  0.000000     12.000000
  0.333333  0.066667  0.000000     12.000000
  0.400000  0.066667  0.000000     12.000000
  0.466667  0.066667  0.000000      6.000000
  0.133333  0.133333  0.000000      6.000000
  0.200000  0.133333  0.000000     12.000000
  0.266667  0.133333  0.000000     12.000000
  0.333333  0.133333  0.000000     12.000000
  0.400000  0.133333  0.000000     12.000000
  0.200000  0.200000  0.000000      6.000000
  0.266667  0.200000  0.000000     12.000000
  0.333333  0.200000  0.000000     12.000000
  0.400000  0.200000  0.000000      6.000000
  0.266667  0.266667  0.000000      6.000000
  0.333333  0.266667  0.000000     12.000000
  0.333333  0.333333  0.000000      2.000000
  0.000000  0.000000  0.090909      2.000000
  0.066667 -0.000000  0.090909     12.000000
  0.133333 -0.000000  0.090909     12.000000
  0.200000 -0.000000  0.090909     12.000000
  0.266667  0.000000  0.090909     12.000000
  0.333333 -0.000000  0.090909     12.000000
  0.400000 -0.000000  0.090909     12.000000
  0.466667 -0.000000  0.090909     12.000000
  0.066667  0.066667  0.090909     12.000000
  0.133333  0.066667  0.090909     24.000000
  0.200000  0.066667  0.090909     24.000000
  0.266667  0.066667  0.090909     24.000000
  0.333333  0.066667  0.090909     24.000000
  0.400000  0.066667  0.090909     24.000000
  0.466667  0.066667  0.090909     12.000000
  0.133333  0.133333  0.090909     12.000000
  0.200000  0.133333  0.090909     24.000000
  0.266667  0.133333  0.090909     24.000000
  0.333333  0.133333  0.090909     24.000000
  0.400000  0.133333  0.090909     24.000000
  0.200000  0.200000  0.090909     12.000000
  0.266667  0.200000  0.090909     24.000000
  0.333333  0.200000  0.090909     24.000000
  0.400000  0.200000  0.090909     12.000000
  0.266667  0.266667  0.090909     12.000000
  0.333333  0.266667  0.090909     24.000000
  0.333333  0.333333  0.090909      4.000000
  0.000000  0.000000  0.181818      2.000000
  0.066667 -0.000000  0.181818     12.000000
  0.133333 -0.000000  0.181818     12.000000
  0.200000 -0.000000  0.181818     12.000000
  0.266667  0.000000  0.181818     12.000000
  0.333333 -0.000000  0.181818     12.000000
  0.400000 -0.000000  0.181818     12.000000
  0.466667 -0.000000  0.181818     12.000000
  0.066667  0.066667  0.181818     12.000000
  0.133333  0.066667  0.181818     24.000000
  0.200000  0.066667  0.181818     24.000000
  0.266667  0.066667  0.181818     24.000000
  0.333333  0.066667  0.181818     24.000000
  0.400000  0.066667  0.181818     24.000000
  0.466667  0.066667  0.181818     12.000000
  0.133333  0.133333  0.181818     12.000000
  0.200000  0.133333  0.181818     24.000000
  0.266667  0.133333  0.181818     24.000000
  0.333333  0.133333  0.181818     24.000000
  0.400000  0.133333  0.181818     24.000000
  0.200000  0.200000  0.181818     12.000000
  0.266667  0.200000  0.181818     24.000000
  0.333333  0.200000  0.181818     24.000000
  0.400000  0.200000  0.181818     12.000000
  0.266667  0.266667  0.181818     12.000000
  0.333333  0.266667  0.181818     24.000000
  0.333333  0.333333  0.181818      4.000000
  0.000000  0.000000  0.272727      2.000000
  0.066667 -0.000000  0.272727     12.000000
  0.133333 -0.000000  0.272727     12.000000
  0.200000 -0.000000  0.272727     12.000000
  0.266667  0.000000  0.272727     12.000000
  0.333333 -0.000000  0.272727     12.000000
  0.400000 -0.000000  0.272727     12.000000
  0.466667 -0.000000  0.272727     12.000000
  0.066667  0.066667  0.272727     12.000000
  0.133333  0.066667  0.272727     24.000000
  0.200000  0.066667  0.272727     24.000000
  0.266667  0.066667  0.272727     24.000000
  0.333333  0.066667  0.272727     24.000000
  0.400000  0.066667  0.272727     24.000000
  0.466667  0.066667  0.272727     12.000000
  0.133333  0.133333  0.272727     12.000000
  0.200000  0.133333  0.272727     24.000000
  0.266667  0.133333  0.272727     24.000000
  0.333333  0.133333  0.272727     24.000000
  0.400000  0.133333  0.272727     24.000000
  0.200000  0.200000  0.272727     12.000000
  0.266667  0.200000  0.272727     24.000000
  0.333333  0.200000  0.272727     24.000000
  0.400000  0.200000  0.272727     12.000000
  0.266667  0.266667  0.272727     12.000000
  0.333333  0.266667  0.272727     24.000000
  0.333333  0.333333  0.272727      4.000000
  0.000000  0.000000  0.363636      2.000000
  0.066667 -0.000000  0.363636     12.000000
  0.133333 -0.000000  0.363636     12.000000
  0.200000 -0.000000  0.363636     12.000000
  0.266667  0.000000  0.363636     12.000000
  0.333333 -0.000000  0.363636     12.000000
  0.400000 -0.000000  0.363636     12.000000
  0.466667 -0.000000  0.363636     12.000000
  0.066667  0.066667  0.363636     12.000000
  0.133333  0.066667  0.363636     24.000000
  0.200000  0.066667  0.363636     24.000000
  0.266667  0.066667  0.363636     24.000000
  0.333333  0.066667  0.363636     24.000000
  0.400000  0.066667  0.363636     24.000000
  0.466667  0.066667  0.363636     12.000000
  0.133333  0.133333  0.363636     12.000000
  0.200000  0.133333  0.363636     24.000000
  0.266667  0.133333  0.363636     24.000000
  0.333333  0.133333  0.363636     24.000000
  0.400000  0.133333  0.363636     24.000000
  0.200000  0.200000  0.363636     12.000000
  0.266667  0.200000  0.363636     24.000000
  0.333333  0.200000  0.363636     24.000000
  0.400000  0.200000  0.363636     12.000000
  0.266667  0.266667  0.363636     12.000000
  0.333333  0.266667  0.363636     24.000000
  0.333333  0.333333  0.363636      4.000000
  0.000000  0.000000  0.454545      2.000000
  0.066667 -0.000000  0.454545     12.000000
  0.133333 -0.000000  0.454545     12.000000
  0.200000 -0.000000  0.454545     12.000000
  0.266667  0.000000  0.454545     12.000000
  0.333333 -0.000000  0.454545     12.000000
  0.400000 -0.000000  0.454545     12.000000
  0.466667 -0.000000  0.454545     12.000000
  0.066667  0.066667  0.454545     12.000000
  0.133333  0.066667  0.454545     24.000000
  0.200000  0.066667  0.454545     24.000000
  0.266667  0.066667  0.454545     24.000000
  0.333333  0.066667  0.454545     24.000000
  0.400000  0.066667  0.454545     24.000000
  0.466667  0.066667  0.454545     12.000000
  0.133333  0.133333  0.454545     12.000000
  0.200000  0.133333  0.454545     24.000000
  0.266667  0.133333  0.454545     24.000000
  0.333333  0.133333  0.454545     24.000000
  0.400000  0.133333  0.454545     24.000000
  0.200000  0.200000  0.454545     12.000000
  0.266667  0.200000  0.454545     24.000000
  0.333333  0.200000  0.454545     24.000000
  0.400000  0.200000  0.454545     12.000000
  0.266667  0.266667  0.454545     12.000000
  0.333333  0.266667  0.454545     24.000000
  0.333333  0.333333  0.454545      4.000000
 
 Following cartesian coordinates:
            Coordinates               Weight
  0.000000  0.000000  0.000000      1.000000
  0.021708 -0.012533  0.000000      6.000000
  0.043416 -0.025066  0.000000      6.000000
  0.065124 -0.037599  0.000000      6.000000
  0.086832 -0.050132  0.000000      6.000000
  0.108540 -0.062666  0.000000      6.000000
  0.130248 -0.075199  0.000000      6.000000
  0.151956 -0.087732  0.000000      6.000000
  0.043416  0.000000  0.000000      6.000000
  0.065124 -0.012533  0.000000     12.000000
  0.086832 -0.025066  0.000000     12.000000
  0.108540 -0.037599  0.000000     12.000000
  0.130248 -0.050132  0.000000     12.000000
  0.151956 -0.062666  0.000000     12.000000
  0.173664 -0.075199  0.000000      6.000000
  0.086832  0.000000  0.000000      6.000000
  0.108540 -0.012533  0.000000     12.000000
  0.130248 -0.025066  0.000000     12.000000
  0.151956 -0.037599  0.000000     12.000000
  0.173664 -0.050132  0.000000     12.000000
  0.130248  0.000000  0.000000      6.000000
  0.151956 -0.012533  0.000000     12.000000
  0.173664 -0.025066  0.000000     12.000000
  0.195372 -0.037599  0.000000      6.000000
  0.173664  0.000000  0.000000      6.000000
  0.195372 -0.012533  0.000000     12.000000
  0.217080  0.000000  0.000000      2.000000
  0.000000  0.000000  0.025760      2.000000
  0.021708 -0.012533  0.025760     12.000000
  0.043416 -0.025066  0.025760     12.000000
  0.065124 -0.037599  0.025760     12.000000
  0.086832 -0.050132  0.025760     12.000000
  0.108540 -0.062666  0.025760     12.000000
  0.130248 -0.075199  0.025760     12.000000
  0.151956 -0.087732  0.025760     12.000000
  0.043416  0.000000  0.025760     12.000000
  0.065124 -0.012533  0.025760     24.000000
  0.086832 -0.025066  0.025760     24.000000
  0.108540 -0.037599  0.025760     24.000000
  0.130248 -0.050132  0.025760     24.000000
  0.151956 -0.062666  0.025760     24.000000
  0.173664 -0.075199  0.025760     12.000000
  0.086832  0.000000  0.025760     12.000000
  0.108540 -0.012533  0.025760     24.000000
  0.130248 -0.025066  0.025760     24.000000
  0.151956 -0.037599  0.025760     24.000000
  0.173664 -0.050132  0.025760     24.000000
  0.130248  0.000000  0.025760     12.000000
  0.151956 -0.012533  0.025760     24.000000
  0.173664 -0.025066  0.025760     24.000000
  0.195372 -0.037599  0.025760     12.000000
  0.173664  0.000000  0.025760     12.000000
  0.195372 -0.012533  0.025760     24.000000
  0.217080  0.000000  0.025760      4.000000
  0.000000  0.000000  0.051519      2.000000
  0.021708 -0.012533  0.051519     12.000000
  0.043416 -0.025066  0.051519     12.000000
  0.065124 -0.037599  0.051519     12.000000
  0.086832 -0.050132  0.051519     12.000000
  0.108540 -0.062666  0.051519     12.000000
  0.130248 -0.075199  0.051519     12.000000
  0.151956 -0.087732  0.051519     12.000000
  0.043416  0.000000  0.051519     12.000000
  0.065124 -0.012533  0.051519     24.000000
  0.086832 -0.025066  0.051519     24.000000
  0.108540 -0.037599  0.051519     24.000000
  0.130248 -0.050132  0.051519     24.000000
  0.151956 -0.062666  0.051519     24.000000
  0.173664 -0.075199  0.051519     12.000000
  0.086832  0.000000  0.051519     12.000000
  0.108540 -0.012533  0.051519     24.000000
  0.130248 -0.025066  0.051519     24.000000
  0.151956 -0.037599  0.051519     24.000000
  0.173664 -0.050132  0.051519     24.000000
  0.130248  0.000000  0.051519     12.000000
  0.151956 -0.012533  0.051519     24.000000
  0.173664 -0.025066  0.051519     24.000000
  0.195372 -0.037599  0.051519     12.000000
  0.173664  0.000000  0.051519     12.000000
  0.195372 -0.012533  0.051519     24.000000
  0.217080  0.000000  0.051519      4.000000
  0.000000  0.000000  0.077279      2.000000
  0.021708 -0.012533  0.077279     12.000000
  0.043416 -0.025066  0.077279     12.000000
  0.065124 -0.037599  0.077279     12.000000
  0.086832 -0.050132  0.077279     12.000000
  0.108540 -0.062666  0.077279     12.000000
  0.130248 -0.075199  0.077279     12.000000
  0.151956 -0.087732  0.077279     12.000000
  0.043416  0.000000  0.077279     12.000000
  0.065124 -0.012533  0.077279     24.000000
  0.086832 -0.025066  0.077279     24.000000
  0.108540 -0.037599  0.077279     24.000000
  0.130248 -0.050132  0.077279     24.000000
  0.151956 -0.062666  0.077279     24.000000
  0.173664 -0.075199  0.077279     12.000000
  0.086832  0.000000  0.077279     12.000000
  0.108540 -0.012533  0.077279     24.000000
  0.130248 -0.025066  0.077279     24.000000
  0.151956 -0.037599  0.077279     24.000000
  0.173664 -0.050132  0.077279     24.000000
  0.130248  0.000000  0.077279     12.000000
  0.151956 -0.012533  0.077279     24.000000
  0.173664 -0.025066  0.077279     24.000000
  0.195372 -0.037599  0.077279     12.000000
  0.173664  0.000000  0.077279     12.000000
  0.195372 -0.012533  0.077279     24.000000
  0.217080  0.000000  0.077279      4.000000
  0.000000  0.000000  0.103039      2.000000
  0.021708 -0.012533  0.103039     12.000000
  0.043416 -0.025066  0.103039     12.000000
  0.065124 -0.037599  0.103039     12.000000
  0.086832 -0.050132  0.103039     12.000000
  0.108540 -0.062666  0.103039     12.000000
  0.130248 -0.075199  0.103039     12.000000
  0.151956 -0.087732  0.103039     12.000000
  0.043416  0.000000  0.103039     12.000000
  0.065124 -0.012533  0.103039     24.000000
  0.086832 -0.025066  0.103039     24.000000
  0.108540 -0.037599  0.103039     24.000000
  0.130248 -0.050132  0.103039     24.000000
  0.151956 -0.062666  0.103039     24.000000
  0.173664 -0.075199  0.103039     12.000000
  0.086832  0.000000  0.103039     12.000000
  0.108540 -0.012533  0.103039     24.000000
  0.130248 -0.025066  0.103039     24.000000
  0.151956 -0.037599  0.103039     24.000000
  0.173664 -0.050132  0.103039     24.000000
  0.130248  0.000000  0.103039     12.000000
  0.151956 -0.012533  0.103039     24.000000
  0.173664 -0.025066  0.103039     24.000000
  0.195372 -0.037599  0.103039     12.000000
  0.173664  0.000000  0.103039     12.000000
  0.195372 -0.012533  0.103039     24.000000
  0.217080  0.000000  0.103039      4.000000
  0.000000  0.000000  0.128798      2.000000
  0.021708 -0.012533  0.128798     12.000000
  0.043416 -0.025066  0.128798     12.000000
  0.065124 -0.037599  0.128798     12.000000
  0.086832 -0.050132  0.128798     12.000000
  0.108540 -0.062666  0.128798     12.000000
  0.130248 -0.075199  0.128798     12.000000
  0.151956 -0.087732  0.128798     12.000000
  0.043416  0.000000  0.128798     12.000000
  0.065124 -0.012533  0.128798     24.000000
  0.086832 -0.025066  0.128798     24.000000
  0.108540 -0.037599  0.128798     24.000000
  0.130248 -0.050132  0.128798     24.000000
  0.151956 -0.062666  0.128798     24.000000
  0.173664 -0.075199  0.128798     12.000000
  0.086832  0.000000  0.128798     12.000000
  0.108540 -0.012533  0.128798     24.000000
  0.130248 -0.025066  0.128798     24.000000
  0.151956 -0.037599  0.128798     24.000000
  0.173664 -0.050132  0.128798     24.000000
  0.130248  0.000000  0.128798     12.000000
  0.151956 -0.012533  0.128798     24.000000
  0.173664 -0.025066  0.128798     24.000000
  0.195372 -0.037599  0.128798     12.000000
  0.173664  0.000000  0.128798     12.000000
  0.195372 -0.012533  0.128798     24.000000
  0.217080  0.000000  0.128798      4.000000
 


--------------------------------------------------------------------------------------------------------




 Dimension of arrays:
   k-points           NKPTS =    162   k-points in BZ     NKDIM =    162   number of bands    NBANDS=      8
   number of dos      NEDOS =    301   number of ions     NIONS =      3
   non local maximal  LDIM  =      5   non local SUM 2l+1 LMDIM =     13
   total plane-waves  NPLWV =  21952
   max r-space proj   IRMAX =      1   max aug-charges    IRDMAX=  32546
   dimension x,y,z NGX =    28 NGY =   28 NGZ =   28
   dimension x,y,z NGXF=    56 NGYF=   56 NGZF=   56
   support grid    NGXF=    56 NGYF=   56 NGZF=   56
   ions per type =               1   2
 NGX,Y,Z   is equivalent  to a cutoff of  15.16, 15.16, 13.19 a.u.
 NGXF,Y,Z  is equivalent  to a cutoff of  30.31, 30.31, 26.38 a.u.


 I would recommend the setting:
   dimension x,y,z NGX =    25 NGY =   25 NGZ =   28
 SYSTEM =  unknown system                          
 POSCAR =  Mg1 B2                                  

 Startparameter for this run:
   NWRITE =      2    write-flag & timer
   PREC   = accura    normal or accurate (medium, high low for compatibility)
   ISTART =      0    job   : 0-new  1-cont  2-samecut
   ICHARG =      2    charge: 1-file 2-atom 10-const
   ISPIN  =      1    spin polarized calculation?
   LNONCOLLINEAR =      F non collinear calculations
   LSORBIT =      F    spin-orbit coupling
   INIWAV =      1    electr: 0-lowe 1-rand  2-diag
   LASPH  =      F    aspherical Exc in radial PAW
   METAGGA=      F    non-selfconsistent MetaGGA calc.

 Electronic Relaxation 1
   ENCUT  =  600.0 eV  44.10 Ry    6.64 a.u.   6.13  6.13  7.05*2*pi/ulx,y,z
   ENINI  =  600.0     initial cutoff
   ENAUG  =  800.0 eV  augmentation charge cutoff
   NELM   =    300;   NELMIN=  2; NELMDL= -5     # of ELM steps 
   EDIFF  = 0.1E-05   stopping-criterion for ELM
   LREAL  =      F    real-space projection
   NLSPLINE    = F    spline interpolate recip. space projectors
   LCOMPAT=      F    compatible to vasp.4.4
   GGA_COMPAT  = T    GGA compatible to vasp.4.4-vasp.4.6
   LMAXPAW     = -100 max onsite density
   LMAXMIX     =    2 max onsite mixed and CHGCAR
   VOSKOWN=      0    Vosko Wilk Nusair interpolation
   ROPT   =    0.00000   0.00000
 Ionic relaxation
   EDIFFG = -.1E-01   stopping-criterion for IOM
   NSW    =      0    number of steps for IOM
   NBLOCK =      1;   KBLOCK =      1    inner block; outer block 
   IBRION =     -1    ionic relax: 0-MD 1-quasi-New 2-CG
   NFREE  =      1    steps in history (QN), initial steepest desc. (CG)
   ISIF   =      3    stress and relaxation
   IWAVPR =     10    prediction:  0-non 1-charg 2-wave 3-comb
   ISYM   =      2    0-nonsym 1-usesym 2-fastsym
   LCORR  =      T    Harris-Foulkes like correction to forces

   POTIM  = 0.5000    time-step for ionic-motion
   TEIN   =    0.0    initial temperature
   TEBEG  =    0.0;   TEEND  =   0.0 temperature during run
   SMASS  =  -3.00    Nose mass-parameter (am)
   estimated Nose-frequenzy (Omega)   =  0.10E-29 period in steps =****** mass=  -0.216E-27a.u.
   SCALEE = 1.0000    scale energy and forces
   NPACO  =    256;   APACO  = 16.0  distance and # of slots for P.C.
   PSTRESS=    0.0 pullay stress

  Mass of Ions in am
   POMASS =  24.30 10.81
  Ionic Valenz
   ZVAL   =   2.00  3.00
  Atomic Wigner-Seitz radii
   RWIGS  =  -1.00 -1.00
  virtual crystal weights 
   VCA    =   1.00  1.00
   NELECT =       8.0000    total number of electrons
   NUPDOWN=      -1.0000    fix difference up-down

 DOS related values:
   EMIN   =  10.00;   EMAX   =-10.00  energy-range for DOS
   EFERMI =   0.00
   ISMEAR =     0;   SIGMA  =   0.05  broadening in eV -4-tet -1-fermi 0-gaus

 Electronic relaxation 2 (details)
   IALGO  =     38    algorithm
   LDIAG  =      T    sub-space diagonalisation (order eigenvalues)
   LSUBROT=      F    optimize rotation matrix (better conditioning)
   TURBO    =      0    0=normal 1=particle mesh
   IRESTART =      0    0=no restart 2=restart with 2 vectors
   NREBOOT  =      0    no. of reboots
   NMIN     =      0    reboot dimension
   EREF     =   0.00    reference energy to select bands
   IMIX   =      4    mixing-type and parameters
     AMIX     =   0.40;   BMIX     =  1.00
     AMIX_MAG =   1.60;   BMIX_MAG =  1.00
     AMIN     =   0.10
     WC   =   100.;   INIMIX=   1;  MIXPRE=   1;  MAXMIX= -45

 Intra band minimization:
   WEIMIN = 0.0000     energy-eigenvalue tresh-hold
   EBREAK =  0.31E-07  absolut break condition
   DEPER  =   0.30     relativ break condition  

   TIME   =   0.40     timestep for ELM

  volume/ion in A,a.u.               =       9.61        64.84
  Fermi-wavevector in a.u.,A,eV,Ry     =   1.067856  2.017955 15.514948  1.140317
  Thomas-Fermi vector in A             =   2.203486
 
 Write flags
   LWAVE  =      F    write WAVECAR
   LCHARG =      T    write CHGCAR
   LVTOT  =      F    write LOCPOT, total local potential
   LVHAR  =      F    write LOCPOT, Hartree potential only
   LELF   =      F    write electronic localiz. function (ELF)
   LORBIT =      0    0 simple, 1 ext, 2 COOP (PROOUT)


 Dipole corrections
   LMONO  =      F    monopole corrections only (constant potential shift)
   LDIPOL =      F    correct potential (dipole corrections)
   IDIPOL =      0    1-x, 2-y, 3-z, 4-all directions 
   EPSILON=  1.0000000 bulk dielectric constant

 Exchange correlation treatment:
   GGA     =    PE    GGA type
   LEXCH   =     8    internal setting for exchange type
   VOSKOWN=      0    Vosko Wilk Nusair interpolation
   LHFCALC =     F    Hartree Fock is set to
   LHFONE  =     F    Hartree Fock one center treatment
   AEXX    =    0.0000 exact exchange contribution

 Linear response parameters
   LEPSILON=     F    determine dielectric tensor
   LRPA    =     F    only Hartree local field effects (RPA)
   LNABLA  =     F    use nabla operator in PAW spheres
   LVEL    =     F    velocity operator in full k-point grid
   LINTERFAST=   F  fast interpolation
   KINTER  =     0    interpolate to denser k-point grid
   CSHIFT  =0.1000    complex shift for real part using Kramers Kronig
   OMEGAMAX=  -1.0    maximum frequency
   DEG_THRESHOLD= 0.2000000E-02 threshold for treating states as degnerate
   RTIME   =    0.100 relaxation time in fs

 Orbital magnetization related:
   ORBITALMAG=     F  switch on orbital magnetization
   LCHIMAG   =     F  perturbation theory with respect to B field
   DQ        =  0.001000  dq finite difference perturbation B field



--------------------------------------------------------------------------------------------------------


 Static calculation
 charge density and potential will be updated during run
 non-spin polarized calculation
 Variant of blocked Davidson
 Davidson routine will perform the subspace rotation
 perform sub-space diagonalisation
    after iterative eigenvector-optimisation
 modified Broyden-mixing scheme, WC =      100.0
 initial mixing is a Kerker type mixing with AMIX =  0.4000 and BMIX =      1.0000
 Hartree-type preconditioning will be used
 using additional bands            4
 reciprocal scheme for non local part
 use partial core corrections
 calculate Harris-corrections to forces 
   (improved forces if not selfconsistent)
 use gradient corrections 
 use of overlap-Matrix (Vanderbilt PP)
 Gauss-broadening in eV      SIGMA  =   0.05


--------------------------------------------------------------------------------------------------------


  energy-cutoff  :      600.00
  volume of cell :       28.83
      direct lattice vectors                 reciprocal lattice vectors
     1.535534262 -2.659623358  0.000000000     0.325619566 -0.187996544  0.000000000
     1.535534262  2.659623358  0.000000000     0.325619566  0.187996544  0.000000000
     0.000000000  0.000000000  3.529122234     0.000000000  0.000000000  0.283356578

  length of vectors
     3.071068523  3.071068523  3.529122234     0.375993088  0.375993088  0.283356578


 
 k-points in units of 2pi/SCALE and weight: KPOINTS automatic                       
   0.00000000  0.00000000  0.00000000       0.000
   0.02170797 -0.01253310  0.00000000       0.002
   0.04341594 -0.02506621  0.00000000       0.002
   0.06512391 -0.03759931  0.00000000       0.002
   0.08683188 -0.05013241  0.00000000       0.002
   0.10853986 -0.06266551  0.00000000       0.002
   0.13024783 -0.07519862  0.00000000       0.002
   0.15195580 -0.08773172  0.00000000       0.002
   0.04341594  0.00000000  0.00000000       0.002
   0.06512391 -0.01253310  0.00000000       0.005
   0.08683188 -0.02506621  0.00000000       0.005
   0.10853986 -0.03759931  0.00000000       0.005
   0.13024783 -0.05013241  0.00000000       0.005
   0.15195580 -0.06266551  0.00000000       0.005
   0.17366377 -0.07519862  0.00000000       0.002
   0.08683188  0.00000000  0.00000000       0.002
   0.10853986 -0.01253310  0.00000000       0.005
   0.13024783 -0.02506621  0.00000000       0.005
   0.15195580 -0.03759931  0.00000000       0.005
   0.17366377 -0.05013241  0.00000000       0.005
   0.13024783  0.00000000  0.00000000       0.002
   0.15195580 -0.01253310  0.00000000       0.005
   0.17366377 -0.02506621  0.00000000       0.005
   0.19537174 -0.03759931  0.00000000       0.002
   0.17366377  0.00000000  0.00000000       0.002
   0.19537174 -0.01253310  0.00000000       0.005
   0.21707971  0.00000000  0.00000000       0.001
   0.00000000  0.00000000  0.02575969       0.001
   0.02170797 -0.01253310  0.02575969       0.005
   0.04341594 -0.02506621  0.02575969       0.005
   0.06512391 -0.03759931  0.02575969       0.005
   0.08683188 -0.05013241  0.02575969       0.005
   0.10853986 -0.06266551  0.02575969       0.005
   0.13024783 -0.07519862  0.02575969       0.005
   0.15195580 -0.08773172  0.02575969       0.005
   0.04341594  0.00000000  0.02575969       0.005
   0.06512391 -0.01253310  0.02575969       0.010
   0.08683188 -0.02506621  0.02575969       0.010
   0.10853986 -0.03759931  0.02575969       0.010
   0.13024783 -0.05013241  0.02575969       0.010
   0.15195580 -0.06266551  0.02575969       0.010
   0.17366377 -0.07519862  0.02575969       0.005
   0.08683188  0.00000000  0.02575969       0.005
   0.10853986 -0.01253310  0.02575969       0.010
   0.13024783 -0.02506621  0.02575969       0.010
   0.15195580 -0.03759931  0.02575969       0.010
   0.17366377 -0.05013241  0.02575969       0.010
   0.13024783  0.00000000  0.02575969       0.005
   0.15195580 -0.01253310  0.02575969       0.010
   0.17366377 -0.02506621  0.02575969       0.010
   0.19537174 -0.03759931  0.02575969       0.005
   0.17366377  0.00000000  0.02575969       0.005
   0.19537174 -0.01253310  0.02575969       0.010
   0.21707971  0.00000000  0.02575969       0.002
   0.00000000  0.00000000  0.05151938       0.001
   0.02170797 -0.01253310  0.05151938       0.005
   0.04341594 -0.02506621  0.05151938       0.005
   0.06512391 -0.03759931  0.05151938       0.005
   0.08683188 -0.05013241  0.05151938       0.005
   0.10853986 -0.06266551  0.05151938       0.005
   0.13024783 -0.07519862  0.05151938       0.005
   0.15195580 -0.08773172  0.05151938       0.005
   0.04341594  0.00000000  0.05151938       0.005
   0.06512391 -0.01253310  0.05151938       0.010
   0.08683188 -0.02506621  0.05151938       0.010
   0.10853986 -0.03759931  0.05151938       0.010
   0.13024783 -0.05013241  0.05151938       0.010
   0.15195580 -0.06266551  0.05151938       0.010
   0.17366377 -0.07519862  0.05151938       0.005
   0.08683188  0.00000000  0.05151938       0.005
   0.10853986 -0.01253310  0.05151938       0.010
   0.13024783 -0.02506621  0.05151938       0.010
   0.15195580 -0.03759931  0.05151938       0.010
   0.17366377 -0.05013241  0.05151938       0.010
   0.13024783  0.00000000  0.05151938       0.005
   0.15195580 -0.01253310  0.05151938       0.010
   0.17366377 -0.02506621  0.05151938       0.010
   0.19537174 -0.03759931  0.05151938       0.005
   0.17366377  0.00000000  0.05151938       0.005
   0.19537174 -0.01253310  0.05151938       0.010
   0.21707971  0.00000000  0.05151938       0.002
   0.00000000  0.00000000  0.07727907       0.001
   0.02170797 -0.01253310  0.07727907       0.005
   0.04341594 -0.02506621  0.07727907       0.005
   0.06512391 -0.03759931  0.07727907       0.005
   0.08683188 -0.05013241  0.07727907       0.005
   0.10853986 -0.06266551  0.07727907       0.005
   0.13024783 -0.07519862  0.07727907       0.005
   0.15195580 -0.08773172  0.07727907       0.005
   0.04341594  0.00000000  0.07727907       0.005
   0.06512391 -0.01253310  0.07727907       0.010
   0.08683188 -0.02506621  0.07727907       0.010
   0.10853986 -0.03759931  0.07727907       0.010
   0.13024783 -0.05013241  0.07727907       0.010
   0.15195580 -0.06266551  0.07727907       0.010
   0.17366377 -0.07519862  0.07727907       0.005
   0.08683188  0.00000000  0.07727907       0.005
   0.10853986 -0.01253310  0.07727907       0.010
   0.13024783 -0.02506621  0.07727907       0.010
   0.15195580 -0.03759931  0.07727907       0.010
   0.17366377 -0.05013241  0.07727907       0.010
   0.13024783  0.00000000  0.07727907       0.005
   0.15195580 -0.01253310  0.07727907       0.010
   0.17366377 -0.02506621  0.07727907       0.010
   0.19537174 -0.03759931  0.07727907       0.005
   0.17366377  0.00000000  0.07727907       0.005
   0.19537174 -0.01253310  0.07727907       0.010
   0.21707971  0.00000000  0.07727907       0.002
   0.00000000  0.00000000  0.10303876       0.001
   0.02170797 -0.01253310  0.10303876       0.005
   0.04341594 -0.02506621  0.10303876       0.005
   0.06512391 -0.03759931  0.10303876       0.005
   0.08683188 -0.05013241  0.10303876       0.005
   0.10853986 -0.06266551  0.10303876       0.005
   0.13024783 -0.07519862  0.10303876       0.005
   0.15195580 -0.08773172  0.10303876       0.005
   0.04341594  0.00000000  0.10303876       0.005
   0.06512391 -0.01253310  0.10303876       0.010
   0.08683188 -0.02506621  0.10303876       0.010
   0.10853986 -0.03759931  0.10303876       0.010
   0.13024783 -0.05013241  0.10303876       0.010
   0.15195580 -0.06266551  0.10303876       0.010
   0.17366377 -0.07519862  0.10303876       0.005
   0.08683188  0.00000000  0.10303876       0.005
   0.10853986 -0.01253310  0.10303876       0.010
   0.13024783 -0.02506621  0.10303876       0.010
   0.15195580 -0.03759931  0.10303876       0.010
   0.17366377 -0.05013241  0.10303876       0.010
   0.13024783  0.00000000  0.10303876       0.005
   0.15195580 -0.01253310  0.10303876       0.010
   0.17366377 -0.02506621  0.10303876       0.010
   0.19537174 -0.03759931  0.10303876       0.005
   0.17366377  0.00000000  0.10303876       0.005
   0.19537174 -0.01253310  0.10303876       0.010
   0.21707971  0.00000000  0.10303876       0.002
   0.00000000  0.00000000  0.12879844       0.001
   0.02170797 -0.01253310  0.12879844       0.005
   0.04341594 -0.02506621  0.12879844       0.005
   0.06512391 -0.03759931  0.12879844       0.005
   0.08683188 -0.05013241  0.12879844       0.005
   0.10853986 -0.06266551  0.12879844       0.005
   0.13024783 -0.07519862  0.12879844       0.005
   0.15195580 -0.08773172  0.12879844       0.005
   0.04341594  0.00000000  0.12879844       0.005
   0.06512391 -0.01253310  0.12879844       0.010
   0.08683188 -0.02506621  0.12879844       0.010
   0.10853986 -0.03759931  0.12879844       0.010
   0.13024783 -0.05013241  0.12879844       0.010
   0.15195580 -0.06266551  0.12879844       0.010
   0.17366377 -0.07519862  0.12879844       0.005
   0.08683188  0.00000000  0.12879844       0.005
   0.10853986 -0.01253310  0.12879844       0.010
   0.13024783 -0.02506621  0.12879844       0.010
   0.15195580 -0.03759931  0.12879844       0.010
   0.17366377 -0.05013241  0.12879844       0.010
   0.13024783  0.00000000  0.12879844       0.005
   0.15195580 -0.01253310  0.12879844       0.010
   0.17366377 -0.02506621  0.12879844       0.010
   0.19537174 -0.03759931  0.12879844       0.005
   0.17366377  0.00000000  0.12879844       0.005
   0.19537174 -0.01253310  0.12879844       0.010
   0.21707971  0.00000000  0.12879844       0.002
 
 k-points in reciprocal lattice and weights: KPOINTS automatic                       
   0.00000000  0.00000000  0.00000000       0.000
   0.06666667 -0.00000000  0.00000000       0.002
   0.13333333 -0.00000000  0.00000000       0.002
   0.20000000 -0.00000000  0.00000000       0.002
   0.26666667  0.00000000  0.00000000       0.002
   0.33333333 -0.00000000  0.00000000       0.002
   0.40000000 -0.00000000  0.00000000       0.002
   0.46666667 -0.00000000  0.00000000       0.002
   0.06666667  0.06666667  0.00000000       0.002
   0.13333333  0.06666667  0.00000000       0.005
   0.20000000  0.06666667  0.00000000       0.005
   0.26666667  0.06666667  0.00000000       0.005
   0.33333333  0.06666667  0.00000000       0.005
   0.40000000  0.06666667  0.00000000       0.005
   0.46666667  0.06666667  0.00000000       0.002
   0.13333333  0.13333333  0.00000000       0.002
   0.20000000  0.13333333  0.00000000       0.005
   0.26666667  0.13333333  0.00000000       0.005
   0.33333333  0.13333333  0.00000000       0.005
   0.40000000  0.13333333  0.00000000       0.005
   0.20000000  0.20000000  0.00000000       0.002
   0.26666667  0.20000000  0.00000000       0.005
   0.33333333  0.20000000  0.00000000       0.005
   0.40000000  0.20000000  0.00000000       0.002
   0.26666667  0.26666667  0.00000000       0.002
   0.33333333  0.26666667  0.00000000       0.005
   0.33333333  0.33333333  0.00000000       0.001
   0.00000000  0.00000000  0.09090909       0.001
   0.06666667 -0.00000000  0.09090909       0.005
   0.13333333 -0.00000000  0.09090909       0.005
   0.20000000 -0.00000000  0.09090909       0.005
   0.26666667  0.00000000  0.09090909       0.005
   0.33333333 -0.00000000  0.09090909       0.005
   0.40000000 -0.00000000  0.09090909       0.005
   0.46666667 -0.00000000  0.09090909       0.005
   0.06666667  0.06666667  0.09090909       0.005
   0.13333333  0.06666667  0.09090909       0.010
   0.20000000  0.06666667  0.09090909       0.010
   0.26666667  0.06666667  0.09090909       0.010
   0.33333333  0.06666667  0.09090909       0.010
   0.40000000  0.06666667  0.09090909       0.010
   0.46666667  0.06666667  0.09090909       0.005
   0.13333333  0.13333333  0.09090909       0.005
   0.20000000  0.13333333  0.09090909       0.010
   0.26666667  0.13333333  0.09090909       0.010
   0.33333333  0.13333333  0.09090909       0.010
   0.40000000  0.13333333  0.09090909       0.010
   0.20000000  0.20000000  0.09090909       0.005
   0.26666667  0.20000000  0.09090909       0.010
   0.33333333  0.20000000  0.09090909       0.010
   0.40000000  0.20000000  0.09090909       0.005
   0.26666667  0.26666667  0.09090909       0.005
   0.33333333  0.26666667  0.09090909       0.010
   0.33333333  0.33333333  0.09090909       0.002
   0.00000000  0.00000000  0.18181818       0.001
   0.06666667 -0.00000000  0.18181818       0.005
   0.13333333 -0.00000000  0.18181818       0.005
   0.20000000 -0.00000000  0.18181818       0.005
   0.26666667  0.00000000  0.18181818       0.005
   0.33333333 -0.00000000  0.18181818       0.005
   0.40000000 -0.00000000  0.18181818       0.005
   0.46666667 -0.00000000  0.18181818       0.005
   0.06666667  0.06666667  0.18181818       0.005
   0.13333333  0.06666667  0.18181818       0.010
   0.20000000  0.06666667  0.18181818       0.010
   0.26666667  0.06666667  0.18181818       0.010
   0.33333333  0.06666667  0.18181818       0.010
   0.40000000  0.06666667  0.18181818       0.010
   0.46666667  0.06666667  0.18181818       0.005
   0.13333333  0.13333333  0.18181818       0.005
   0.20000000  0.13333333  0.18181818       0.010
   0.26666667  0.13333333  0.18181818       0.010
   0.33333333  0.13333333  0.18181818       0.010
   0.40000000  0.13333333  0.18181818       0.010
   0.20000000  0.20000000  0.18181818       0.005
   0.26666667  0.20000000  0.18181818       0.010
   0.33333333  0.20000000  0.18181818       0.010
   0.40000000  0.20000000  0.18181818       0.005
   0.26666667  0.26666667  0.18181818       0.005
   0.33333333  0.26666667  0.18181818       0.010
   0.33333333  0.33333333  0.18181818       0.002
   0.00000000  0.00000000  0.27272727       0.001
   0.06666667 -0.00000000  0.27272727       0.005
   0.13333333 -0.00000000  0.27272727       0.005
   0.20000000 -0.00000000  0.27272727       0.005
   0.26666667  0.00000000  0.27272727       0.005
   0.33333333 -0.00000000  0.27272727       0.005
   0.40000000 -0.00000000  0.27272727       0.005
   0.46666667 -0.00000000  0.27272727       0.005
   0.06666667  0.06666667  0.27272727       0.005
   0.13333333  0.06666667  0.27272727       0.010
   0.20000000  0.06666667  0.27272727       0.010
   0.26666667  0.06666667  0.27272727       0.010
   0.33333333  0.06666667  0.27272727       0.010
   0.40000000  0.06666667  0.27272727       0.010
   0.46666667  0.06666667  0.27272727       0.005
   0.13333333  0.13333333  0.27272727       0.005
   0.20000000  0.13333333  0.27272727       0.010
   0.26666667  0.13333333  0.27272727       0.010
   0.33333333  0.13333333  0.27272727       0.010
   0.40000000  0.13333333  0.27272727       0.010
   0.20000000  0.20000000  0.27272727       0.005
   0.26666667  0.20000000  0.27272727       0.010
   0.33333333  0.20000000  0.27272727       0.010
   0.40000000  0.20000000  0.27272727       0.005
   0.26666667  0.26666667  0.27272727       0.005
   0.33333333  0.26666667  0.27272727       0.010
   0.33333333  0.33333333  0.27272727       0.002
   0.00000000  0.00000000  0.36363636       0.001
   0.06666667 -0.00000000  0.36363636       0.005
   0.13333333 -0.00000000  0.36363636       0.005
   0.20000000 -0.00000000  0.36363636       0.005
   0.26666667  0.00000000  0.36363636       0.005
   0.33333333 -0.00000000  0.36363636       0.005
   0.40000000 -0.00000000  0.36363636       0.005
   0.46666667 -0.00000000  0.36363636       0.005
   0.06666667  0.06666667  0.36363636       0.005
   0.13333333  0.06666667  0.36363636       0.010
   0.20000000  0.06666667  0.36363636       0.010
   0.26666667  0.06666667  0.36363636       0.010
   0.33333333  0.06666667  0.36363636       0.010
   0.40000000  0.06666667  0.36363636       0.010
   0.46666667  0.06666667  0.36363636       0.005
   0.13333333  0.13333333  0.36363636       0.005
   0.20000000  0.13333333  0.36363636       0.010
   0.26666667  0.13333333  0.36363636       0.010
   0.33333333  0.13333333  0.36363636       0.010
   0.40000000  0.13333333  0.36363636       0.010
   0.20000000  0.20000000  0.36363636       0.005
   0.26666667  0.20000000  0.36363636       0.010
   0.33333333  0.20000000  0.36363636       0.010
   0.40000000  0.20000000  0.36363636       0.005
   0.26666667  0.26666667  0.36363636       0.005
   0.33333333  0.26666667  0.36363636       0.010
   0.33333333  0.33333333  0.36363636       0.002
   0.00000000  0.00000000  0.45454545       0.001
   0.06666667 -0.00000000  0.45454545       0.005
   0.13333333 -0.00000000  0.45454545       0.005
   0.20000000 -0.00000000  0.45454545       0.005
   0.26666667  0.00000000  0.45454545       0.005
   0.33333333 -0.00000000  0.45454545       0.005
   0.40000000 -0.00000000  0.45454545       0.005
   0.46666667 -0.00000000  0.45454545       0.005
   0.06666667  0.06666667  0.45454545       0.005
   0.13333333  0.06666667  0.45454545       0.010
   0.20000000  0.06666667  0.45454545       0.010
   0.26666667  0.06666667  0.45454545       0.010
   0.33333333  0.06666667  0.45454545       0.010
   0.40000000  0.06666667  0.45454545       0.010
   0.46666667  0.06666667  0.45454545       0.005
   0.13333333  0.13333333  0.45454545       0.005
   0.20000000  0.13333333  0.45454545       0.010
   0.26666667  0.13333333  0.45454545       0.010
   0.33333333  0.13333333  0.45454545       0.010
   0.40000000  0.13333333  0.45454545       0.010
   0.20000000  0.20000000  0.45454545       0.005
   0.26666667  0.20000000  0.45454545       0.010
   0.33333333  0.20000000  0.45454545       0.010
   0.40000000  0.20000000  0.45454545       0.005
   0.26666667  0.26666667  0.45454545       0.005
   0.33333333  0.26666667  0.45454545       0.010
   0.33333333  0.33333333  0.45454545       0.002
 
 position of ions in fractional coordinates (direct lattice) 
   0.00000000  0.00000000  0.00000000
   0.66666667  0.33333333  0.50000000
   0.33333333  0.66666667  0.50000000
 
 position of ions in cartesian coordinates  (Angst):
   0.00000000  0.00000000  0.00000000
   1.53553426 -0.88654112  1.76456112
   1.53553426  0.88654112  1.76456112
 


--------------------------------------------------------------------------------------------------------


 k-point  1 :   0.0000 0.0000 0.0000  plane waves:     975
 k-point  2 :   0.0667-0.0000 0.0000  plane waves:     971
 k-point  3 :   0.1333-0.0000 0.0000  plane waves:     961
 k-point  4 :   0.2000-0.0000 0.0000  plane waves:     947
 k-point  5 :   0.2667 0.0000 0.0000  plane waves:     959
 k-point  6 :   0.3333-0.0000 0.0000  plane waves:     958
 k-point  7 :   0.4000-0.0000 0.0000  plane waves:     958
 k-point  8 :   0.4667-0.0000 0.0000  plane waves:     964
 k-point  9 :   0.0667 0.0667 0.0000  plane waves:     965
 k-point 10 :   0.1333 0.0667 0.0000  plane waves:     951
 k-point 11 :   0.2000 0.0667 0.0000  plane waves:     958
 k-point 12 :   0.2667 0.0667 0.0000  plane waves:     952
 k-point 13 :   0.3333 0.0667 0.0000  plane waves:     955
 k-point 14 :   0.4000 0.0667 0.0000  plane waves:     955
 k-point 15 :   0.4667 0.0667 0.0000  plane waves:     960
 k-point 16 :   0.1333 0.1333 0.0000  plane waves:     958
 k-point 17 :   0.2000 0.1333 0.0000  plane waves:     959
 k-point 18 :   0.2667 0.1333 0.0000  plane waves:     958
 k-point 19 :   0.3333 0.1333 0.0000  plane waves:     958
 k-point 20 :   0.4000 0.1333 0.0000  plane waves:     956
 k-point 21 :   0.2000 0.2000 0.0000  plane waves:     968
 k-point 22 :   0.2667 0.2000 0.0000  plane waves:     966
 k-point 23 :   0.3333 0.2000 0.0000  plane waves:     958
 k-point 24 :   0.4000 0.2000 0.0000  plane waves:     964
 k-point 25 :   0.2667 0.2667 0.0000  plane waves:     960
 k-point 26 :   0.3333 0.2667 0.0000  plane waves:     964
 k-point 27 :   0.3333 0.3333 0.0000  plane waves:     960
 k-point 28 :   0.0000 0.0000 0.0909  plane waves:     968
 k-point 29 :   0.0667-0.0000 0.0909  plane waves:     969
 k-point 30 :   0.1333-0.0000 0.0909  plane waves:     952
 k-point 31 :   0.2000-0.0000 0.0909  plane waves:     958
 k-point 32 :   0.2667 0.0000 0.0909  plane waves:     960
 k-point 33 :   0.3333-0.0000 0.0909  plane waves:     959
 k-point 34 :   0.4000-0.0000 0.0909  plane waves:     955
 k-point 35 :   0.4667-0.0000 0.0909  plane waves:     960
 k-point 36 :   0.0667 0.0667 0.0909  plane waves:     956
 k-point 37 :   0.1333 0.0667 0.0909  plane waves:     956
 k-point 38 :   0.2000 0.0667 0.0909  plane waves:     960
 k-point 39 :   0.2667 0.0667 0.0909  plane waves:     959
 k-point 40 :   0.3333 0.0667 0.0909  plane waves:     960
 k-point 41 :   0.4000 0.0667 0.0909  plane waves:     955
 k-point 42 :   0.4667 0.0667 0.0909  plane waves:     957
 k-point 43 :   0.1333 0.1333 0.0909  plane waves:     962
 k-point 44 :   0.2000 0.1333 0.0909  plane waves:     958
 k-point 45 :   0.2667 0.1333 0.0909  plane waves:     957
 k-point 46 :   0.3333 0.1333 0.0909  plane waves:     958
 k-point 47 :   0.4000 0.1333 0.0909  plane waves:     956
 k-point 48 :   0.2000 0.2000 0.0909  plane waves:     962
 k-point 49 :   0.2667 0.2000 0.0909  plane waves:     962
 k-point 50 :   0.3333 0.2000 0.0909  plane waves:     964
 k-point 51 :   0.4000 0.2000 0.0909  plane waves:     965
 k-point 52 :   0.2667 0.2667 0.0909  plane waves:     963
 k-point 53 :   0.3333 0.2667 0.0909  plane waves:     963
 k-point 54 :   0.3333 0.3333 0.0909  plane waves:     966
 k-point 55 :   0.0000 0.0000 0.1818  plane waves:     944
 k-point 56 :   0.0667-0.0000 0.1818  plane waves:     952
 k-point 57 :   0.1333-0.0000 0.1818  plane waves:     957
 k-point 58 :   0.2000-0.0000 0.1818  plane waves:     959
 k-point 59 :   0.2667 0.0000 0.1818  plane waves:     963
 k-point 60 :   0.3333-0.0000 0.1818  plane waves:     964
 k-point 61 :   0.4000-0.0000 0.1818  plane waves:     966
 k-point 62 :   0.4667-0.0000 0.1818  plane waves:     962
 k-point 63 :   0.0667 0.0667 0.1818  plane waves:     952
 k-point 64 :   0.1333 0.0667 0.1818  plane waves:     961
 k-point 65 :   0.2000 0.0667 0.1818  plane waves:     959
 k-point 66 :   0.2667 0.0667 0.1818  plane waves:     962
 k-point 67 :   0.3333 0.0667 0.1818  plane waves:     960
 k-point 68 :   0.4000 0.0667 0.1818  plane waves:     963
 k-point 69 :   0.4667 0.0667 0.1818  plane waves:     958
 k-point 70 :   0.1333 0.1333 0.1818  plane waves:     960
 k-point 71 :   0.2000 0.1333 0.1818  plane waves:     963
 k-point 72 :   0.2667 0.1333 0.1818  plane waves:     963
 k-point 73 :   0.3333 0.1333 0.1818  plane waves:     960
 k-point 74 :   0.4000 0.1333 0.1818  plane waves:     961
 k-point 75 :   0.2000 0.2000 0.1818  plane waves:     963
 k-point 76 :   0.2667 0.2000 0.1818  plane waves:     959
 k-point 77 :   0.3333 0.2000 0.1818  plane waves:     964
 k-point 78 :   0.4000 0.2000 0.1818  plane waves:     969
 k-point 79 :   0.2667 0.2667 0.1818  plane waves:     966
 k-point 80 :   0.3333 0.2667 0.1818  plane waves:     966
 k-point 81 :   0.3333 0.3333 0.1818  plane waves:     975
 k-point 82 :   0.0000 0.0000 0.2727  plane waves:     950
 k-point 83 :   0.0667-0.0000 0.2727  plane waves:     950
 k-point 84 :   0.1333-0.0000 0.2727  plane waves:     954
 k-point 85 :   0.2000-0.0000 0.2727  plane waves:     957
 k-point 86 :   0.2667 0.0000 0.2727  plane waves:     963
 k-point 87 :   0.3333-0.0000 0.2727  plane waves:     964
 k-point 88 :   0.4000-0.0000 0.2727  plane waves:     968
 k-point 89 :   0.4667-0.0000 0.2727  plane waves:     968
 k-point 90 :   0.0667 0.0667 0.2727  plane waves:     957
 k-point 91 :   0.1333 0.0667 0.2727  plane waves:     955
 k-point 92 :   0.2000 0.0667 0.2727  plane waves:     957
 k-point 93 :   0.2667 0.0667 0.2727  plane waves:     964
 k-point 94 :   0.3333 0.0667 0.2727  plane waves:     962
 k-point 95 :   0.4000 0.0667 0.2727  plane waves:     966
 k-point 96 :   0.4667 0.0667 0.2727  plane waves:     968
 k-point 97 :   0.1333 0.1333 0.2727  plane waves:     957
 k-point 98 :   0.2000 0.1333 0.2727  plane waves:     957
 k-point 99 :   0.2667 0.1333 0.2727  plane waves:     963
 k-point ** :   0.3333 0.1333 0.2727  plane waves:     962
 k-point ** :   0.4000 0.1333 0.2727  plane waves:     969
 k-point ** :   0.2000 0.2000 0.2727  plane waves:     960
 k-point ** :   0.2667 0.2000 0.2727  plane waves:     966
 k-point ** :   0.3333 0.2000 0.2727  plane waves:     967
 k-point ** :   0.4000 0.2000 0.2727  plane waves:     969
 k-point ** :   0.2667 0.2667 0.2727  plane waves:     973
 k-point ** :   0.3333 0.2667 0.2727  plane waves:     969
 k-point ** :   0.3333 0.3333 0.2727  plane waves:     969
 k-point ** :   0.0000 0.0000 0.3636  plane waves:     956
 k-point ** :   0.0667-0.0000 0.3636  plane waves:     956
 k-point ** :   0.1333-0.0000 0.3636  plane waves:     955
 k-point ** :   0.2000-0.0000 0.3636  plane waves:     958
 k-point ** :   0.2667 0.0000 0.3636  plane waves:     962
 k-point ** :   0.3333-0.0000 0.3636  plane waves:     964
 k-point ** :   0.4000-0.0000 0.3636  plane waves:     966
 k-point ** :   0.4667-0.0000 0.3636  plane waves:     968
 k-point ** :   0.0667 0.0667 0.3636  plane waves:     952
 k-point ** :   0.1333 0.0667 0.3636  plane waves:     957
 k-point ** :   0.2000 0.0667 0.3636  plane waves:     957
 k-point ** :   0.2667 0.0667 0.3636  plane waves:     963
 k-point ** :   0.3333 0.0667 0.3636  plane waves:     965
 k-point ** :   0.4000 0.0667 0.3636  plane waves:     970
 k-point ** :   0.4667 0.0667 0.3636  plane waves:     970
 k-point ** :   0.1333 0.1333 0.3636  plane waves:     953
 k-point ** :   0.2000 0.1333 0.3636  plane waves:     959
 k-point ** :   0.2667 0.1333 0.3636  plane waves:     960
 k-point ** :   0.3333 0.1333 0.3636  plane waves:     970
 k-point ** :   0.4000 0.1333 0.3636  plane waves:     972
 k-point ** :   0.2000 0.2000 0.3636  plane waves:     959
 k-point ** :   0.2667 0.2000 0.3636  plane waves:     966
 k-point ** :   0.3333 0.2000 0.3636  plane waves:     971
 k-point ** :   0.4000 0.2000 0.3636  plane waves:     975
 k-point ** :   0.2667 0.2667 0.3636  plane waves:     969
 k-point ** :   0.3333 0.2667 0.3636  plane waves:     971
 k-point ** :   0.3333 0.3333 0.3636  plane waves:     966
 k-point ** :   0.0000 0.0000 0.4545  plane waves:     974
 k-point ** :   0.0667-0.0000 0.4545  plane waves:     960
 k-point ** :   0.1333-0.0000 0.4545  plane waves:     959
 k-point ** :   0.2000-0.0000 0.4545  plane waves:     956
 k-point ** :   0.2667 0.0000 0.4545  plane waves:     958
 k-point ** :   0.3333-0.0000 0.4545  plane waves:     959
 k-point ** :   0.4000-0.0000 0.4545  plane waves:     965
 k-point ** :   0.4667-0.0000 0.4545  plane waves:     968
 k-point ** :   0.0667 0.0667 0.4545  plane waves:     959
 k-point ** :   0.1333 0.0667 0.4545  plane waves:     957
 k-point ** :   0.2000 0.0667 0.4545  plane waves:     959
 k-point ** :   0.2667 0.0667 0.4545  plane waves:     961
 k-point ** :   0.3333 0.0667 0.4545  plane waves:     967
 k-point ** :   0.4000 0.0667 0.4545  plane waves:     972
 k-point ** :   0.4667 0.0667 0.4545  plane waves:     968
 k-point ** :   0.1333 0.1333 0.4545  plane waves:     953
 k-point ** :   0.2000 0.1333 0.4545  plane waves:     959
 k-point ** :   0.2667 0.1333 0.4545  plane waves:     967
 k-point ** :   0.3333 0.1333 0.4545  plane waves:     966
 k-point ** :   0.4000 0.1333 0.4545  plane waves:     966
 k-point ** :   0.2000 0.2000 0.4545  plane waves:     961
 k-point ** :   0.2667 0.2000 0.4545  plane waves:     965
 k-point ** :   0.3333 0.2000 0.4545  plane waves:     969
 k-point ** :   0.4000 0.2000 0.4545  plane waves:     970
 k-point ** :   0.2667 0.2667 0.4545  plane waves:     966
 k-point ** :   0.3333 0.2667 0.4545  plane waves:     974
 k-point ** :   0.3333 0.3333 0.4545  plane waves:     981

 maximum and minimum number of plane-waves per node :        90       69

 maximum number of plane-waves:       981
 maximum index in each direction: 
   IXMAX=    6   IYMAX=    6   IZMAX=    7
   IXMIN=   -6   IYMIN=   -6   IZMIN=   -7

 NGX is ok and might be reduce to  26
 NGY is ok and might be reduce to  26
 WARNING: aliasing errors must be expected set NGZ to  30 to avoid them
 aliasing errors are usually negligible using standard VASP settings
 and one can safely disregard these warnings

 parallel 3D FFT for wavefunctions:
    minimum data exchange during FFTs selected (reduces bandwidth)
 parallel 3D FFT for charge:
    minimum data exchange during FFTs selected (reduces bandwidth)


 total amount of memory used by VASP on root node    35052. kBytes
========================================================================

   base      :      30000. kBytes
   nonl-proj :       2969. kBytes
   fftplans  :        383. kBytes
   grid      :        635. kBytes
   one-center:          8. kBytes
   wavefun   :       1057. kBytes
 
     INWAV:  cpu time    0.0000: real time    0.0000
 Broyden mixing: mesh for mixing (old mesh)
   NGX = 13   NGY = 13   NGZ = 15
  (NGX  = 56   NGY  = 56   NGZ  = 56)
  gives a total of   2535 points

 initial charge density was supplied:
 charge density of overlapping atoms calculated
 number of electron       8.0000000 magnetization 
 keeping initial charge density in first step


--------------------------------------------------------------------------------------------------------


 Maximum index for augmentation-charges         1948 (set IRDMAX)


--------------------------------------------------------------------------------------------------------


 First call to EWALD:  gamma=   0.578
 Maximum number of real-space cells 3x 3x 2
 Maximum number of reciprocal cells 3x 3x 3

 FEWALD executed in parallel
    FEWALD:  cpu time    0.0012: real time    0.0012


----------------------------------------- Iteration    1(   1)  ---------------------------------------


    POTLOK:  cpu time    0.0052: real time    0.0052
    SETDIJ:  cpu time    0.0036: real time    0.0036
     EDDAV:  cpu time    0.3349: real time    0.3363
       DOS:  cpu time    0.0013: real time    0.0013
    --------------------------------------------
      LOOP:  cpu time    0.3461: real time    0.3494

 eigenvalue-minimisations  :  2720
 total energy-change (2. order) : 0.1440876E+02  (-0.3725208E+03)
 number of electron       8.0000000 magnetization 
 augmentation part        8.0000000 magnetization 

 Free energy of the ion-electron system (eV)
  ---------------------------------------------------
  alpha Z        PSCENC =        18.97384808
  Ewald energy   TEWEN  =      -196.07816614
  -Hartree energ DENC   =       -16.84511075
  -exchange      EXHF   =         0.00000000
  -V(xc)+E(xc)   XCENC  =       -34.48421580
  PAW double counting   =       152.30642628      -98.73304985
  entropy T*S    EENTRO =        -0.00125212
  eigenvalues    EBANDS =        23.89420983
  atomic energy  EATOM  =       165.37606875
  Solvation  Ediel_sol  =         0.00000000
  ---------------------------------------------------
  free energy    TOTEN  =        14.40875827 eV

  energy without entropy =       14.41001039  energy(sigma->0) =       14.40938433


--------------------------------------------------------------------------------------------------------




----------------------------------------- Iteration    1(   2)  ---------------------------------------


     EDDAV:  cpu time    0.4576: real time    0.4593
       DOS:  cpu time    0.0013: real time    0.0013
    --------------------------------------------
      LOOP:  cpu time    0.4593: real time    0.4631

 eigenvalue-minimisations  :  3440
 total energy-change (2. order) :-0.3027580E+02  (-0.2697308E+02)
 number of electron       8.0000000 magnetization 
 augmentation part        8.0000000 magnetization 

 Free energy of the ion-electron system (eV)
  ---------------------------------------------------
  alpha Z        PSCENC =        18.97384808
  Ewald energy   TEWEN  =      -196.07816614
  -Hartree energ DENC   =       -16.84511075
  -exchange      EXHF   =         0.00000000
  -V(xc)+E(xc)   XCENC  =       -34.48421580
  PAW double counting   =       152.30642628      -98.73304985
  entropy T*S    EENTRO =        -0.00024484
  eigenvalues    EBANDS =        -6.38259301
  atomic energy  EATOM  =       165.37606875
  Solvation  Ediel_sol  =         0.00000000
  ---------------------------------------------------
  free energy    TOTEN  =       -15.86703729 eV

  energy without entropy =      -15.86679245  energy(sigma->0) =      -15.86691487


--------------------------------------------------------------------------------------------------------




----------------------------------------- Iteration    1(   3)  ---------------------------------------


     EDDAV:  cpu time    0.3929: real time    0.3945
       DOS:  cpu time    0.0014: real time    0.0014
    --------------------------------------------
      LOOP:  cpu time    0.3947: real time    0.3978

 eigenvalue-minimisations  :  3456
 total energy-change (2. order) :-0.1177425E+01  (-0.1166912E+01)
 number of electron       8.0000000 magnetization 
 augmentation part        8.0000000 magnetization 

 Free energy of the ion-electron system (eV)
  ---------------------------------------------------
  alpha Z        PSCENC =        18.97384808
  Ewald energy   TEWEN  =      -196.07816614
  -Hartree energ DENC   =       -16.84511075
  -exchange      EXHF   =         0.00000000
  -V(xc)+E(xc)   XCENC  =       -34.48421580
  PAW double counting   =       152.30642628      -98.73304985
  entropy T*S    EENTRO =        -0.00067970
  eigenvalues    EBANDS =        -7.55958295
  atomic energy  EATOM  =       165.37606875
  Solvation  Ediel_sol  =         0.00000000
  ---------------------------------------------------
  free energy    TOTEN  =       -17.04446210 eV

  energy without entropy =      -17.04378240  energy(sigma->0) =      -17.04412225


--------------------------------------------------------------------------------------------------------




----------------------------------------- Iteration    1(   4)  ---------------------------------------


     EDDAV:  cpu time    0.3585: real time    0.3599
       DOS:  cpu time    0.0014: real time    0.0014
    --------------------------------------------
      LOOP:  cpu time    0.3601: real time    0.3631

 eigenvalue-minimisations  :  3036
 total energy-change (2. order) :-0.6355022E-02  (-0.6344114E-02)
 number of electron       8.0000000 magnetization 
 augmentation part        8.0000000 magnetization 

 Free energy of the ion-electron system (eV)
  ---------------------------------------------------
  alpha Z        PSCENC =        18.97384808
  Ewald energy   TEWEN  =      -196.07816614
  -Hartree energ DENC   =       -16.84511075
  -exchange      EXHF   =         0.00000000
  -V(xc)+E(xc)   XCENC  =       -34.48421580
  PAW double counting   =       152.30642628      -98.73304985
  entropy T*S    EENTRO =        -0.00071802
  eigenvalues    EBANDS =        -7.56589966
  atomic energy  EATOM  =       165.37606875
  Solvation  Ediel_sol  =         0.00000000
  ---------------------------------------------------
  free energy    TOTEN  =       -17.05081712 eV

  energy without entropy =      -17.05009910  energy(sigma->0) =      -17.05045811


--------------------------------------------------------------------------------------------------------




----------------------------------------- Iteration    1(   5)  ---------------------------------------


     EDDAV:  cpu time    0.3868: real time    0.3883
       DOS:  cpu time    0.0014: real time    0.0014
    CHARGE:  cpu time    0.0228: real time    0.0229
    MIXING:  cpu time    0.0013: real time    0.0013
    --------------------------------------------
      LOOP:  cpu time    0.4128: real time    0.4158

 eigenvalue-minimisations  :  3408
 total energy-change (2. order) :-0.5456486E-04  (-0.5456114E-04)
 number of electron       8.0000000 magnetization 
 augmentation part        0.0039058 magnetization 

 Broyden mixing:
  rms(total) = 0.53088E+00    rms(broyden)= 0.53088E+00
  rms(prec ) = 0.17756E+01
  weight for this iteration     100.00

 Free energy of the ion-electron system (eV)
  ---------------------------------------------------
  alpha Z        PSCENC =        18.97384808
  Ewald energy   TEWEN  =      -196.07816614
  -Hartree energ DENC   =       -16.84511075
  -exchange      EXHF   =         0.00000000
  -V(xc)+E(xc)   XCENC  =       -34.48421580
  PAW double counting   =       152.30642628      -98.73304985
  entropy T*S    EENTRO =        -0.00071817
  eigenvalues    EBANDS =        -7.56595407
  atomic energy  EATOM  =       165.37606875
  Solvation  Ediel_sol  =         0.00000000
  ---------------------------------------------------
  free energy    TOTEN  =       -17.05087169 eV

  energy without entropy =      -17.05015351  energy(sigma->0) =      -17.05051260


--------------------------------------------------------------------------------------------------------




----------------------------------------- Iteration    1(   6)  ---------------------------------------


    POTLOK:  cpu time    0.0076: real time    0.0076
    SETDIJ:  cpu time    0.0036: real time    0.0036
     EDDAV:  cpu time    0.3433: real time    0.3446
       DOS:  cpu time    0.0014: real time    0.0014
    CHARGE:  cpu time    0.0164: real time    0.0164
    MIXING:  cpu time    0.0004: real time    0.0004
    --------------------------------------------
      LOOP:  cpu time    0.3730: real time    0.3761

 eigenvalue-minimisations  :  2972
 total energy-change (2. order) : 0.1478531E+01  (-0.1429825E+00)
 number of electron       8.0000000 magnetization 
 augmentation part       -0.0055357 magnetization 

 Broyden mixing:
  rms(total) = 0.25141E+00    rms(broyden)= 0.25141E+00
  rms(prec ) = 0.73157E+00
  weight for this iteration     100.00

 eigenvalues of (default mixing * dielectric matrix)
  average eigenvalue GAMMA=   1.7503
  1.7503

 Free energy of the ion-electron system (eV)
  ---------------------------------------------------
  alpha Z        PSCENC =        18.97384808
  Ewald energy   TEWEN  =      -196.07816614
  -Hartree energ DENC   =       -22.47471693
  -exchange      EXHF   =         0.00000000
  -V(xc)+E(xc)   XCENC  =       -34.05652844
  PAW double counting   =       262.20526554     -208.73294964
  entropy T*S    EENTRO =        -0.00111252
  eigenvalues    EBANDS =        -0.78404942
  atomic energy  EATOM  =       165.37606875
  Solvation  Ediel_sol  =         0.00000000
  ---------------------------------------------------
  free energy    TOTEN  =       -15.57234071 eV

  energy without entropy =      -15.57122820  energy(sigma->0) =      -15.57178445


--------------------------------------------------------------------------------------------------------




----------------------------------------- Iteration    1(   7)  ---------------------------------------


    POTLOK:  cpu time    0.0039: real time    0.0039
    SETDIJ:  cpu time    0.0018: real time    0.0018
     EDDAV:  cpu time    0.3953: real time    0.3968
       DOS:  cpu time    0.0014: real time    0.0014
    CHARGE:  cpu time    0.0169: real time    0.0170
    MIXING:  cpu time    0.0003: real time    0.0003
    --------------------------------------------
      LOOP:  cpu time    0.4200: real time    0.4233

 eigenvalue-minimisations  :  3280
 total energy-change (2. order) : 0.2460135E+00  (-0.7305793E-01)
 number of electron       8.0000000 magnetization 
 augmentation part       -0.0120983 magnetization 

 Broyden mixing:
  rms(total) = 0.78011E-01    rms(broyden)= 0.78011E-01
  rms(prec ) = 0.15436E+00
  weight for this iteration     100.00

 eigenvalues of (default mixing * dielectric matrix)
  average eigenvalue GAMMA=   1.9820
  1.9820  1.9820

 Free energy of the ion-electron system (eV)
  ---------------------------------------------------
  alpha Z        PSCENC =        18.97384808
  Ewald energy   TEWEN  =      -196.07816614
  -Hartree energ DENC   =       -26.70122490
  -exchange      EXHF   =         0.00000000
  -V(xc)+E(xc)   XCENC  =       -33.68029119
  PAW double counting   =       421.11325015     -367.69905021
  entropy T*S    EENTRO =        -0.00107447
  eigenvalues    EBANDS =         3.37031269
  atomic energy  EATOM  =       165.37606875
  Solvation  Ediel_sol  =         0.00000000
  ---------------------------------------------------
  free energy    TOTEN  =       -15.32632724 eV

  energy without entropy =      -15.32525277  energy(sigma->0) =      -15.32579000


--------------------------------------------------------------------------------------------------------




----------------------------------------- Iteration    1(   8)  ---------------------------------------


    POTLOK:  cpu time    0.0041: real time    0.0041
    SETDIJ:  cpu time    0.0021: real time    0.0021
     EDDAV:  cpu time    0.3373: real time    0.3387
       DOS:  cpu time    0.0014: real time    0.0014
    CHARGE:  cpu time    0.0161: real time    0.0162
    MIXING:  cpu time    0.0003: real time    0.0003
    --------------------------------------------
      LOOP:  cpu time    0.3616: real time    0.3646

 eigenvalue-minimisations  :  2916
 total energy-change (2. order) :-0.5480443E-02  (-0.8657139E-02)
 number of electron       8.0000000 magnetization 
 augmentation part       -0.0103146 magnetization 

 Broyden mixing:
  rms(total) = 0.39237E-01    rms(broyden)= 0.39237E-01
  rms(prec ) = 0.13942E+00
  weight for this iteration     100.00

 eigenvalues of (default mixing * dielectric matrix)
  average eigenvalue GAMMA=   1.6602
  2.5105  0.9448  1.5252

 Free energy of the ion-electron system (eV)
  ---------------------------------------------------
  alpha Z        PSCENC =        18.97384808
  Ewald energy   TEWEN  =      -196.07816614
  -Hartree energ DENC   =       -25.64715816
  -exchange      EXHF   =         0.00000000
  -V(xc)+E(xc)   XCENC  =       -33.69547984
  PAW double counting   =       475.31591803     -421.88610919
  entropy T*S    EENTRO =        -0.00083544
  eigenvalues    EBANDS =         2.31010624
  atomic energy  EATOM  =       165.37606875
  Solvation  Ediel_sol  =         0.00000000
  ---------------------------------------------------
  free energy    TOTEN  =       -15.33180768 eV

  energy without entropy =      -15.33097224  energy(sigma->0) =      -15.33138996


--------------------------------------------------------------------------------------------------------




----------------------------------------- Iteration    1(   9)  ---------------------------------------


    POTLOK:  cpu time    0.0038: real time    0.0038
    SETDIJ:  cpu time    0.0017: real time    0.0017
     EDDAV:  cpu time    0.3407: real time    0.3420
       DOS:  cpu time    0.0014: real time    0.0014
    CHARGE:  cpu time    0.0167: real time    0.0167
    MIXING:  cpu time    0.0004: real time    0.0004
    --------------------------------------------
      LOOP:  cpu time    0.3650: real time    0.3679

 eigenvalue-minimisations  :  2924
 total energy-change (2. order) : 0.9394151E-02  (-0.1558102E-02)
 number of electron       8.0000000 magnetization 
 augmentation part       -0.0112973 magnetization 

 Broyden mixing:
  rms(total) = 0.51508E-02    rms(broyden)= 0.51508E-02
  rms(prec ) = 0.10007E-01
  weight for this iteration     100.00

 eigenvalues of (default mixing * dielectric matrix)
  average eigenvalue GAMMA=   1.6156
  2.3367  1.5852  1.5852  0.9553

[...]
      6      11.0455      0.00000
      7      13.8001      0.00000
      8      15.6275      0.00000

 k-point   131 :       0.3333    0.2000    0.3636
  band No.  band energies     occupation 
      1      -2.7418      2.00000
      2      -0.6361      2.00000
      3       1.4433      2.00000
      4       2.3434      2.00000
      5       5.1185      2.00000
      6      10.5542      0.00000
      7      13.7758      0.00000
      8      16.2844      0.00000

 k-point   132 :       0.4000    0.2000    0.3636
  band No.  band energies     occupation 
      1      -2.0543      2.00000
      2      -1.4186      2.00000
      3       1.3574      2.00000
      4       2.8387      2.00000
      5       4.5444      2.00000
      6      10.3928      0.00000
      7      13.7518      0.00000
      8      16.5539      0.00000

 k-point   133 :       0.2667    0.2667    0.3636
  band No.  band energies     occupation 
      1      -2.8050      2.00000
      2      -0.1118      2.00000
      3       0.8549      2.00000
      4       2.3154      2.00000
      5       5.3015      0.63662
      6      10.1748      0.00000
      7      14.9973      0.00000
      8      15.7774      0.00000

 k-point   134 :       0.3333    0.2667    0.3636
  band No.  band energies     occupation 
      1      -1.9795      2.00000
      2      -0.9027      2.00000
      3       0.4735      2.00000
      4       3.0889      2.00000
      5       4.5023      2.00000
      6       9.7241      0.00000
      7      15.2797      0.00000
      8      16.4794      0.00000

 k-point   135 :       0.3333    0.3333    0.3636
  band No.  band energies     occupation 
      1      -1.2724      2.00000
      2      -1.2724      2.00000
      3      -0.0289      2.00000
      4       3.8272      2.00000
      5       3.8272      2.00000
      6       9.4241      0.00000
      7      16.4952      0.00000
      8      16.4952      0.00000

 k-point   136 :       0.0000    0.0000    0.4545
  band No.  band energies     occupation 
      1      -5.9347      2.00000
      2      -2.0757      2.00000
      3       6.0626      0.00000
      4       6.0626      0.00000
      5      12.0137      0.00000
      6      12.0137      0.00000
      7      13.3729      0.00000
      8      14.8905      0.00000

 k-point   137 :       0.0667   -0.0000    0.4545
  band No.  band energies     occupation 
      1      -5.8637      2.00000
      2      -1.9871      2.00000
      3       5.6951      0.00000
      4       5.8647      0.00000
      5      12.0202      0.00000
      6      12.3713      0.00000
      7      12.7542      0.00000
      8      14.9630      0.00000

 k-point   138 :       0.1333   -0.0000    0.4545
  band No.  band energies     occupation 
      1      -5.6509      2.00000
      2      -1.7226      2.00000
      3       4.7611      2.00000
      4       5.3889      0.00322
      5      11.3895      0.00000
      6      11.9555      0.00000
      7      13.3225      0.00000
      8      15.1603      0.00000

 k-point   139 :       0.2000   -0.0000    0.4545
  band No.  band energies     occupation 
      1      -5.2972      2.00000
      2      -1.2865      2.00000
      3       3.5443      2.00000
      4       4.8287      2.00000
      5       9.8123      0.00000
      6      11.7621      0.00000
      7      14.6620      0.00000
      8      15.3943      0.00000

 k-point   140 :       0.2667    0.0000    0.4545
  band No.  band energies     occupation 
      1      -4.8042      2.00000
      2      -0.6875      2.00000
      3       2.2362      2.00000
      4       4.3069      2.00000
      5       8.2116      0.00000
      6      11.5246      0.00000
      7      15.2221      0.00000
      8      15.2760      0.00000

 k-point   141 :       0.3333   -0.0000    0.4545
  band No.  band energies     occupation 
      1      -4.1749      2.00000
      2       0.0563      2.00000
      3       0.9412      2.00000
      4       3.8848      2.00000
      5       6.6802      0.00000
      6      11.3089      0.00000
      7      14.7971      0.00000
      8      14.8191      0.00000

 k-point   142 :       0.4000   -0.0000    0.4545
  band No.  band energies     occupation 
      1      -3.4170      2.00000
      2      -0.2841      2.00000
      3       0.9023      2.00000
      4       3.5918      2.00000
      5       5.2981      0.70604
      6      11.1512      0.00000
      7      14.4472      0.00000
      8      14.5107      0.00000

 k-point   143 :       0.4667   -0.0000    0.4545
  band No.  band energies     occupation 
      1      -2.5724      2.00000
      2      -1.3665      2.00000
      3       1.6611      2.00000
      4       3.4424      2.00000
      5       4.2664      2.00000
      6      11.0688      0.00000
      7      14.2525      0.00000
      8      14.3670      0.00000

 k-point   144 :       0.0667    0.0667    0.4545
  band No.  band energies     occupation 
      1      -5.7218      2.00000
      2      -1.8105      2.00000
      3       5.1028      2.00000
      4       5.4682      0.00000
      5      11.8052      0.00000
      6      12.1161      0.00000
      7      12.8762      0.00000
      8      15.0865      0.00000

 k-point   145 :       0.1333    0.0667    0.4545
  band No.  band energies     occupation 
      1      -5.4386      2.00000
      2      -1.4601      2.00000
      3       4.1109      2.00000
      4       4.8642      2.00000
      5      10.4283      0.00000
      6      12.1508      0.00000
      7      13.7570      0.00000
      8      14.9987      0.00000

 k-point   146 :       0.2000    0.0667    0.4545
  band No.  band energies     occupation 
      1      -5.0152      2.00000
      2      -0.9422      2.00000
      3       2.8902      2.00000
      4       4.2807      2.00000
      5       8.9132      0.00000
      6      11.9989      0.00000
      7      14.2313      0.00000
      8      15.0142      0.00000

 k-point   147 :       0.2667    0.0667    0.4545
  band No.  band energies     occupation 
      1      -4.4539      2.00000
      2      -0.2689      2.00000
      3       1.6065      2.00000
      4       3.7916      2.00000
      5       7.3942      0.00000
      6      11.7893      0.00000
      7      13.5466      0.00000
      8      16.2634      0.00000

 k-point   148 :       0.3333    0.0667    0.4545
  band No.  band energies     occupation 
      1      -3.7596      2.00000
      2       0.3491      2.00000
      3       0.5384      2.00000
      4       3.4277      2.00000
      5       5.9583      0.00000
      6      11.6044      0.00000
      7      13.0523      0.00000
      8      16.2623      0.00000

 k-point   149 :       0.4000    0.0667    0.4545
  band No.  band energies     occupation 
      1      -2.9473      2.00000
      2      -0.8074      2.00000
      3       1.3794      2.00000
      4       3.2042      2.00000
      5       4.7228      2.00000
      6      11.4821      0.00000
      7      12.7564      0.00000
      8      16.0897      0.00000

 k-point   150 :       0.4667    0.0667    0.4545
  band No.  band energies     occupation 
      1      -2.2525      2.00000
      2      -1.6202      2.00000
      3       1.8683      2.00000
      4       3.1286      2.00000
      5       4.1025      2.00000
      6      11.4396      0.00000
      7      12.6581      0.00000
      8      16.0224      0.00000

 k-point   151 :       0.1333    0.1333    0.4545
  band No.  band energies     occupation 
      1      -5.0857      2.00000
      2      -1.0276      2.00000
      3       3.2993      2.00000
      4       4.0507      2.00000
      5       9.2225      0.00000
      6      12.6339      0.00000
      7      13.8061      0.00000
      8      14.0760      0.00000

 k-point   152 :       0.2000    0.1333    0.4545
  band No.  band energies     occupation 
      1      -4.5940      2.00000
      2      -0.4338      2.00000
      3       2.2450      2.00000
      4       3.3572      2.00000
      5       7.9058      0.00000
      6      12.6571      0.00000
      7      12.8837      0.00000
      8      14.9355      0.00000

 k-point   153 :       0.2667    0.1333    0.4545
  band No.  band energies     occupation 
      1      -3.9672      2.00000
      2       0.3034      2.00000
      3       1.0550      2.00000
      4       2.8768      2.00000
      5       6.5631      0.00000
      6      11.9371      0.00000
      7      12.7215      0.00000
      8      16.2407      0.00000

 k-point   154 :       0.3333    0.1333    0.4545
  band No.  band energies     occupation 
      1      -3.2134      2.00000
      2      -0.1233      2.00000
      3       1.1433      2.00000
      4       2.5659      2.00000
      5       5.2910      0.86114
      6      11.4353      0.00000
      7      12.5933      0.00000
      8      17.3715      0.00000

 k-point   155 :       0.4000    0.1333    0.4545
  band No.  band energies     occupation 
      1      -2.3758      2.00000
      2      -1.1827      2.00000
      3       1.9071      2.00000
      4       2.4110      2.00000
      5       4.3015      2.00000
      6      11.1883      0.00000
      7      12.5200      0.00000
      8      17.6637      0.00000

 k-point   156 :       0.2000    0.2000    0.4545
  band No.  band energies     occupation 
      1      -4.0367      2.00000
      2       0.2261      2.00000
      3       1.5331      2.00000
      4       2.4227      2.00000
      5       6.8343      0.00000
      6      11.5221      0.00000
      7      13.7062      0.00000
      8      15.0463      0.00000

 k-point   157 :       0.2667    0.2000    0.4545
  band No.  band energies     occupation 
      1      -3.3490      2.00000
      2       0.5753      2.00000
      3       1.0130      2.00000
      4       1.8358      2.00000
      5       5.7257      0.00000
      6      10.6620      0.00000
      7      13.9733      0.00000
      8      16.0212      0.00000

 k-point   158 :       0.3333    0.2000    0.4545
  band No.  band energies     occupation 
      1      -2.5481      2.00000
      2      -0.4801      2.00000
      3       1.5473      2.00000
      4       1.8572      2.00000
      5       4.6721      2.00000
      6      10.1572      0.00000
      7      13.9371      0.00000
      8      17.3998      0.00000

 k-point   159 :       0.4000    0.2000    0.4545
  band No.  band energies     occupation 
      1      -1.8666      2.00000
      2      -1.2571      2.00000
      3       1.4613      2.00000
      4       2.3695      2.00000
      5       4.0826      2.00000
      6       9.9920      0.00000
      7      13.9104      0.00000
      8      18.1267      0.00000

 k-point   160 :       0.2667    0.2667    0.4545
  band No.  band energies     occupation 
      1      -2.6106      2.00000
      2       0.0435      2.00000
      3       0.9636      2.00000
      4       1.8262      2.00000
      5       4.8645      2.00000
      6       9.7533      0.00000
      7      15.2312      0.00000
      8      16.0815      0.00000

 k-point   161 :       0.3333    0.2667    0.4545
  band No.  band energies     occupation 
      1      -1.7968      2.00000
      2      -0.7399      2.00000
      3       0.5876      2.00000
      4       2.6198      2.00000
      5       4.0517      2.00000
      6       9.2876      0.00000
      7      15.5097      0.00000
      8      17.2587      0.00000

 k-point   162 :       0.3333    0.3333    0.4545
  band No.  band energies     occupation 
      1      -1.0981      2.00000
      2      -1.0981      2.00000
      3       0.0841      2.00000
      4       3.3701      2.00000
      5       3.3701      2.00000
      6       8.9755      0.00000
      7      17.0616      0.00000
      8      17.2510      0.00000


--------------------------------------------------------------------------------------------------------


 soft charge-density along one line, spin component           1
         0         1         2         3         4         5         6         7         8         9
 total charge-density along one line
 
 pseudopotential strength for first ion, spin component:           1
  2.978   9.472   0.000  -0.000   0.000   0.000  -0.000   0.000
  9.472  29.967   0.000  -0.000   0.000   0.000  -0.000   0.000
  0.000   0.000   7.277  -0.000  -0.000  10.570  -0.000   0.000
 -0.000  -0.000  -0.000   7.273   0.000  -0.000  10.562   0.000
  0.000   0.000  -0.000   0.000   7.277   0.000   0.000  10.570
  0.000   0.000  10.570  -0.000   0.000  14.559  -0.000  -0.000
 -0.000  -0.000  -0.000  10.562   0.000  -0.000  14.548   0.000
  0.000   0.000   0.000   0.000  10.570  -0.000   0.000  14.559
  0.000   0.000   0.000   0.000   0.000   0.000   0.000   0.000
 -0.000  -0.000  -0.000   0.000   0.000  -0.000   0.000   0.000
 -0.002  -0.005  -0.000  -0.000  -0.000  -0.000  -0.000  -0.000
  0.000   0.000   0.000   0.000  -0.000   0.000   0.000  -0.000
  0.000   0.000  -0.000  -0.000   0.000  -0.000  -0.000   0.000
 total augmentation occupancy for first ion, spin component:           1
  1.044  -0.039   0.000   0.000   0.000   0.000   0.000   0.000   0.000   0.000   0.009  -0.000  -0.000
 -0.039   0.002   0.000   0.000   0.000   0.000   0.000   0.000   0.000   0.000  -0.001  -0.000   0.000
  0.000   0.000   0.114  -0.000   0.000  -0.010   0.000  -0.000   0.000   0.000   0.000   0.000   0.000
  0.000   0.000   0.000   0.116   0.000   0.000  -0.011  -0.000   0.000   0.000   0.000   0.000   0.000
  0.000   0.000   0.000  -0.000   0.114   0.000  -0.000  -0.010   0.000   0.000   0.000   0.000   0.000
  0.000   0.000  -0.010  -0.000   0.000   0.001   0.000   0.000   0.000   0.000   0.000   0.000   0.000
  0.000   0.000   0.000  -0.011  -0.000   0.000   0.001  -0.000   0.000   0.000   0.000   0.000   0.000
  0.000   0.000  -0.000  -0.000  -0.010   0.000   0.000   0.001   0.000   0.000   0.000   0.000   0.000
 -0.000   0.000   0.000   0.000   0.000   0.000   0.000   0.000   0.015   0.000   0.000   0.000   0.000
  0.000   0.000   0.000   0.000   0.000   0.000   0.000   0.000   0.000   0.033   0.000   0.000   0.000
  0.009  -0.001   0.000   0.000   0.000   0.000   0.000   0.000   0.000   0.000   0.009   0.000   0.000
 -0.000  -0.000   0.000   0.000   0.000   0.000   0.000   0.000   0.000   0.000   0.000   0.033   0.000
  0.000   0.000   0.000   0.000   0.000   0.000   0.000   0.000   0.000   0.000   0.000  -0.000   0.015


------------------------ aborting loop because EDIFF is reached ----------------------------------------


    CHARGE:  cpu time    0.0162: real time    0.0163
    FORLOC:  cpu time    0.0008: real time    0.0008
    FORNL :  cpu time    0.0260: real time    0.0261
    STRESS:  cpu time    0.0951: real time    0.0954
    FORCOR:  cpu time    0.0044: real time    0.0044
    FORHAR:  cpu time    0.0012: real time    0.0012
    MIXING:  cpu time    0.0004: real time    0.0004
    OFIELD:  cpu time    0.0000: real time    0.0000

  FORCE on cell =-STRESS in cart. coord.  units (eV):
  Direction    XX          YY          ZZ          XY          YZ          ZX
  --------------------------------------------------------------------------------------
  Alpha Z    18.97385    18.97385    18.97385
  Ewald     -42.74720   -42.74720  -110.58396     0.00000    -0.00000    -0.00000
  Hartree    21.10708    21.10708   -15.80480     0.00000    -0.00000    -0.00000
  E(xc)     -24.77464   -24.77464   -24.84921    -0.00000     0.00000    -0.00000
  Local     -51.07421   -51.07421    54.50465    -0.00000     0.00000    -0.00000
  n-local     4.30078     5.27969     5.99259     0.03647    -0.09844     0.74033
  augment     0.32372     0.32372     0.35095     0.00000     0.00000     0.00000
  Kinetic    76.88431    69.91386    71.42104    -0.04127     0.83768    -6.45927
  Fock        0.00000     0.00000     0.00000     0.00000     0.00000     0.00000
  -------------------------------------------------------------------------------------
  Total      -0.00208    -0.00208     0.00510     0.00000    -0.00000     0.00000
  in kB      -0.11569    -0.11569     0.28339     0.00000    -0.00000     0.00000
  external pressure =        0.02 kB  Pullay stress =        0.00 kB


 VOLUME and BASIS-vectors are now :
 -----------------------------------------------------------------------------
  energy-cutoff  :      600.00
  volume of cell :       28.83
      direct lattice vectors                 reciprocal lattice vectors
     1.535534262 -2.659623358  0.000000000     0.325619566 -0.187996544  0.000000000
     1.535534262  2.659623358  0.000000000     0.325619566  0.187996544  0.000000000
     0.000000000  0.000000000  3.529122234     0.000000000  0.000000000  0.283356578

  length of vectors
     3.071068523  3.071068523  3.529122234     0.375993088  0.375993088  0.283356578


 FORCES acting on ions
    electron-ion (+dipol)            ewald-force                    non-local-force                 convergence-correction
 -----------------------------------------------------------------------------------------------
   -.619E-15 0.286E-14 0.635E-15   0.366E-15 -.337E-15 -.644E-15   0.000E+00 0.827E-24 0.000E+00   0.358E-16 -.289E-16 0.950E-15
   0.589E-13 0.128E-08 -.814E-12   -.179E-14 -.539E-11 0.322E-15   -.347E-17 0.694E-17 0.000E+00   -.455E-15 0.477E-11 -.418E-14
   -.414E-13 -.128E-08 -.188E-12   0.206E-14 0.539E-11 0.322E-15   -.243E-16 0.486E-16 0.000E+00   -.268E-15 -.477E-11 -.419E-14
 -----------------------------------------------------------------------------------------------
   0.169E-13 0.509E-13 -.100E-11   0.633E-15 -.123E-15 -.493E-31   -.278E-16 0.555E-16 0.000E+00   -.687E-15 0.666E-15 -.741E-14
 
 
 POSITION                                       TOTAL-FORCE (eV/Angst)
 -----------------------------------------------------------------------------------
      0.00000      0.00000      0.00000         0.000000     -0.000000      0.000000
      1.53553     -0.88654      1.76456         0.000000      0.000000      0.000000
      1.53553      0.88654      1.76456        -0.000000     -0.000000      0.000000
 -----------------------------------------------------------------------------------
    total drift:                                0.000000      0.000000     -0.000000


--------------------------------------------------------------------------------------------------------



  FREE ENERGIE OF THE ION-ELECTRON SYSTEM (eV)
  ---------------------------------------------------
  free  energy   TOTEN  =       -15.32244288 eV

  energy  without entropy=      -15.32126685  energy(sigma->0) =      -15.32185487
 


--------------------------------------------------------------------------------------------------------


    POTLOK:  cpu time    0.0057: real time    0.0057


--------------------------------------------------------------------------------------------------------


     LOOP+:  cpu time    5.1492: real time    5.2027
    4ORBIT:  cpu time    0.0000: real time    0.0000

 total amount of memory used by VASP on root node    35052. kBytes
========================================================================

   base      :      30000. kBytes
   nonl-proj :       2969. kBytes
   fftplans  :        383. kBytes
   grid      :        635. kBytes
   one-center:          8. kBytes
   wavefun   :       1057. kBytes
 
  
  
 General timing and accounting informations for this job:
 ========================================================
  
                  Total CPU time used (sec):        5.803
                            User time (sec):        5.692
                          System time (sec):        0.111
                         Elapsed time (sec):        6.235
  
                   Maximum memory used (kb):      139940.
                   Average memory used (kb):           0.
  
                          Minor page faults:        16009
                          Major page faults:            1
                 Voluntary context switches:          950
