    3    3    1    1
  0.9608489E+01  0.3071069E-09  0.3071069E-09  0.3529122E-09  0.5000000E-15
  1.000000000000000E-004
  CAR 
 unknown system                          
      8    162      8
 
  0.0000000E+00  0.0000000E+00  0.0000000E+00  0.4040404E-03
    1       -7.151926   1.000000
    2        2.296331   1.000000
    3        5.704073   0.000000
    4        5.704073   0.000000
    5        6.889137   0.000000
    6       11.704393   0.000000
    7       11.704393   0.000000
    8       13.568994   0.000000
 
  0.6666667E-01 -0.6938894E-17  0.0000000E+00  0.2424242E-02
    1       -7.074163   1.000000
    2        2.372481   1.000000
    3        5.300606   0.327289
    4        5.514625   0.000000
    5        6.958764   0.000000
    6       11.658114   0.000000
    7       12.051495   0.000000
    8       13.734186   0.000000
 
  0.1333333E+00 -0.1387779E-16  0.0000000E+00  0.2424242E-02
    1       -6.841430   1.000000
    2        2.599892   1.000000
    3        4.286150   1.000000
    4        5.056880   1.000000
    5        7.174801   0.000000
    6       11.414823   0.000000
    7       12.977854   0.000000
    8       14.200268   0.000000
 
  0.2000000E+00 -0.1387779E-16  0.0000000E+00  0.2424242E-02
    1       -6.455477   1.000000
    2        2.974975   1.000000
    3        2.982751   1.000000
    4        4.514867   1.000000
    5        7.530408   0.000000
    6       11.028793   0.000000
    7       13.134697   0.000000
    8       14.283991   0.000000
 
  0.2666667E+00  0.2775558E-16  0.0000000E+00  0.2424242E-02
    1       -5.919408   1.000000
    2        1.592980   1.000000
    3        3.489141   1.000000
    4        4.008260   1.000000
    5        8.002382   0.000000
    6       10.648389   0.000000
    7       11.831153   0.000000
    8       14.565599   0.000000
 
  0.3333333E+00 -0.5551115E-16  0.0000000E+00  0.2424242E-02
    1       -5.238294   1.000000
    2        0.220998   1.000000
    3        3.597542   1.000000
    4        4.122109   1.000000
    5        8.539250   0.000000
    6       10.377189   0.000000
    7       10.512544   0.000000
    8       13.979555   0.000000
 
  0.4000000E+00 -0.2775558E-16  0.0000000E+00  0.2424242E-02
    1       -4.422317   1.000000
    2       -1.074560   1.000000
    3        3.312253   1.000000
    4        4.817099   1.000000
    5        9.009783   0.000000
    6        9.322056   0.000000
    7       10.328065   0.000000
    8       13.182816   0.000000
 
  0.4666667E+00 -0.5551115E-16  0.0000000E+00  0.2424242E-02
    1       -3.519997   1.000000
    2       -2.221576   1.000000
    3        3.166645   1.000000
    4        5.385744   0.002149
    5        8.495488   0.000000
    6        9.228437   0.000000
    7       10.536468   0.000000
    8       12.529791   0.000000
 
  0.6666667E-01  0.6666667E-01  0.0000000E+00  0.2424242E-02
    1       -6.918912   1.000000
    2        2.524288   1.000000
    3        4.658987   1.000000
    4        5.115779   0.999999
    5        7.108460   0.000000
    6       11.705504   0.000000
    7       12.404974   0.000000
    8       14.149561   0.000000
 
  0.1333333E+00  0.6666667E-01  0.0000000E+00  0.4848485E-02
    1       -6.609567   1.000000
    2        2.825765   1.000000
    3        3.591180   1.000000
    4        4.508595   1.000000
    5        7.410065   0.000000
    6       11.565912   0.000000
    7       13.069447   0.000000
    8       13.582743   0.000000
 
  0.2000000E+00  0.6666667E-01  0.0000000E+00  0.4848485E-02
    1       -6.148554   1.000000
    2        2.289198   1.000000
    3        3.271388   1.000000
    4        3.927758   1.000000
    5        7.844134   0.000000
    6       11.204365   0.000000
    7       12.391567   0.000000
    8       13.934664   0.000000
 
  0.2666667E+00  0.6666667E-01  0.0000000E+00  0.4848485E-02
    1       -5.539860   1.000000
    2        0.927550   1.000000
    3        3.443288   1.000000
    4        3.848477   1.000000
    5        8.384618   0.000000
    6       10.849200   0.000000
    7       11.102319   0.000000
    8       14.124341   0.000000
 
  0.3333333E+00  0.6666667E-01  0.0000000E+00  0.4848485E-02
    1       -4.790450   1.000000
    2       -0.398526   1.000000
    3        3.083609   1.000000
    4        4.524680   1.000000
    5        8.974483   0.000000
    6        9.853394   0.000000
    7       10.602547   0.000000
    8       13.566526   0.000000
 
  0.4000000E+00  0.6666667E-01  0.0000000E+00  0.4848485E-02
    1       -3.918950   1.000000
    2       -1.628448   1.000000
    3        2.863190   1.000000
    4        5.199959   0.991787
    5        8.811513   0.000000
    6        9.462946   0.000000
    7       10.551193   0.000000
    8       12.862034   0.000000
 
  0.4666667E+00  0.6666667E-01  0.0000000E+00  0.2424242E-02
    1       -3.183409   1.000000
    2       -2.485322   1.000000
    3        2.788998   1.000000
    4        5.546085   0.000000
    5        8.339647   0.000000
    6        9.634539   0.000000
    7       10.631568   0.000000
    8       12.504521   0.000000
 
  0.1333333E+00  0.1333333E+00  0.0000000E+00  0.2424242E-02
    1       -6.225167   1.000000
    2        2.723528   1.000000
    3        3.198477   1.000000
    4        3.649154   1.000000
    5        7.805907   0.000000
    6       12.068454   0.000000
    7       12.614331   0.000000
    8       12.862607   0.000000
 
  0.2000000E+00  0.1333333E+00  0.0000000E+00  0.4848485E-02
    1       -5.691461   1.000000
    2        1.603902   1.000000
    3        2.924007   1.000000
    4        3.710240   1.000000
    5        8.329062   0.000000
    6       11.482679   0.000000
    7       11.950154   0.000000
    8       13.349915   0.000000
 
  0.2666667E+00  0.1333333E+00  0.0000000E+00  0.4848485E-02
    1       -5.013893   1.000000
    2        0.344760   1.000000
    3        2.426141   1.000000
    4        4.342670   1.000000
    5        8.954861   0.000000
    6       10.296576   0.000000
    7       11.583565   0.000000
    8       13.626818   0.000000
 
  0.3333333E+00  0.1333333E+00  0.0000000E+00  0.4848485E-02
    1       -4.203308   1.000000
    2       -0.901034   1.000000
    3        2.107254   1.000000
    4        5.044932   1.000000
    5        9.182008   0.000000
    6        9.642805   0.000000
    7       11.241781   0.000000
    8       13.280726   0.000000
 
  0.4000000E+00  0.1333333E+00  0.0000000E+00  0.4848485E-02
    1       -3.309871   1.000000
    2       -2.022569   1.000000
    3        1.949691   1.000000
    4        5.636694   0.000000
    5        8.371335   0.000000
    6       10.300604   0.000000
    7       10.885907   0.000000
    8       12.868923   0.000000
 
  0.2000000E+00  0.2000000E+00  0.0000000E+00  0.2424242E-02
    1       -5.088746   1.000000
    2        0.840742   1.000000
    3        1.928333   1.000000
    4        4.281000   1.000000
    5        8.931181   0.000000
    6       10.479045   0.000000
    7       12.747078   0.000000
    8       12.926063   0.000000
 
  0.2666667E+00  0.2000000E+00  0.0000000E+00  0.4848485E-02
    1       -4.348425   1.000000
    2       -0.167344   1.000000
    3        1.296391   1.000000
    4        4.958728   1.000000
    5        9.445863   0.000000
    6        9.618605   0.000000
    7       12.271304   0.000000
    8       13.475685   0.000000
 
  0.3333333E+00  0.2000000E+00  0.0000000E+00  0.4848485E-02
    1       -3.491212   1.000000
    2       -1.279406   1.000000
    3        0.988812   1.000000
    4        5.664444   0.000000
    5        8.503707   0.000000
    6       10.347295   0.000000
    7       11.747035   0.000000
    8       13.503777   0.000000
 
  0.4000000E+00  0.2000000E+00  0.0000000E+00  0.2424242E-02
    1       -2.773521   1.000000
    2       -2.093608   1.000000
    3        0.894580   1.000000
    4        6.061522   0.000000
    5        8.023428   0.000000
    6       10.916829   0.000000
    7       11.268539   0.000000
    8       13.429511   0.000000
 
  0.2666667E+00  0.2666667E+00  0.0000000E+00  0.2424242E-02
    1       -3.557364   1.000000
    2       -0.743639   1.000000
    3        0.373020   1.000000
    4        5.667362   0.000000
    5        8.576711   0.000000
    6       10.322223   0.000000
    7       12.161700   0.000000
    8       13.951715   0.000000
 
  0.3333333E+00  0.2666667E+00  0.0000000E+00  0.4848485E-02
    1       -2.692873   1.000000
    2       -1.562706   1.000000
    3       -0.040311   1.000000
    4        6.355473   0.000000
    5        7.804641   0.000000
    6       10.982964   0.000000
    7       11.733975   0.000000
    8       14.156261   0.000000
 
  0.3333333E+00  0.3333333E+00  0.0000000E+00  0.8080808E-03
    1       -1.957025   1.000000
    2       -1.957025   1.000000
    3       -0.559019   1.000000
    4        7.081376   0.000000
    5        7.081376   0.000000
    6       11.459934   0.000000
    7       11.459934   0.000000
    8       14.394645   0.000000
 
  0.0000000E+00  0.0000000E+00  0.9090909E-01  0.8080808E-03
    1       -7.081647   1.000000
    2        1.734022   1.000000
    3        5.731161   0.000000
    4        5.731161   0.000000
    5        7.618405   0.000000
    6       11.727308   0.000000
    7       11.727308   0.000000
    8       13.552532   0.000000
 
  0.6666667E-01 -0.6938894E-17  0.9090909E-01  0.4848485E-02
    1       -7.004134   1.000000
    2        1.811573   1.000000
    3        5.330263   0.099179
    4        5.541062   0.000000
    5        7.684185   0.000000
    6       11.688219   0.000000
    7       12.075109   0.000000
    8       13.647770   0.000000
 
  0.1333333E+00 -0.1387779E-16  0.9090909E-01  0.4848485E-02
    1       -6.772179   1.000000
    2        2.042940   1.000000
    3        4.322280   1.000000
    4        5.082001   1.000000
    5        7.888940   0.000000
    6       11.458596   0.000000
    7       13.003149   0.000000
    8       13.573610   0.000000
 
  0.2000000E+00 -0.1387779E-16  0.9090909E-01  0.4848485E-02
    1       -6.387516   1.000000
    2        2.420434   1.000000
    3        3.029558   1.000000
    4        4.538634   1.000000
    5        8.224631   0.000000
    6       11.078152   0.000000
    7       12.639452   0.000000
    8       14.311025   0.000000
 
  0.2666667E+00  0.2775558E-16  0.9090909E-01  0.4848485E-02
    1       -5.853213   1.000000
    2        1.634066   1.000000
    3        2.956178   1.000000
    4        4.030923   1.000000
    5        8.651870   0.000000
    6       10.667984   0.000000
    7       11.425681   0.000000
    8       15.065584   0.000000
 
  0.3333333E+00 -0.5551115E-16  0.9090909E-01  0.4848485E-02
    1       -5.174343   1.000000
    2        0.268170   1.000000
    3        3.603140   1.000000
    4        3.619382   1.000000
    5        9.013175   0.000000
    6        9.999391   0.000000
    7       10.675576   0.000000
    8       14.533921   0.000000
 
  0.4000000E+00 -0.2775558E-16  0.9090909E-01  0.4848485E-02
    1       -4.361043   1.000000
    2       -1.023071   1.000000
    3        3.333538   1.000000
    4        4.322760   1.000000
    5        8.530429   0.000000
    6        9.637592   0.000000
    7       10.743219   0.000000
    8       13.755436   0.000000
 
  0.4666667E+00 -0.5551115E-16  0.9090909E-01  0.4848485E-02
    1       -3.461911   1.000000
    2       -2.166184   1.000000
    3        3.187641   1.000000
    4        4.928262   1.000000
    5        7.750371   0.000000
    6        9.629931   0.000000
    7       11.123637   0.000000
    8       13.088183   0.000000
 
  0.6666667E-01  0.6666667E-01  0.9090909E-01  0.4848485E-02
    1       -6.849406   1.000000
    2        1.966084   1.000000
    3        4.691205   1.000000
    4        5.144945   0.999962
    5        7.825464   0.000000
    6       11.744979   0.000000
    7       12.421560   0.000000
    8       13.755256   0.000000
 
  0.1333333E+00  0.6666667E-01  0.9090909E-01  0.9696970E-02
    1       -6.541094   1.000000
    2        2.272146   1.000000
    3        3.629470   1.000000
    4        4.539215   1.000000
    5        8.113742   0.000000
    6       11.607595   0.000000
    7       12.805816   0.000000
    8       13.474303   0.000000
 
  0.2000000E+00  0.6666667E-01  0.9090909E-01  0.9696970E-02
    1       -6.081609   1.000000
    2        2.322720   1.000000
    3        2.736069   1.000000
    4        3.958551   1.000000
    5        8.526079   0.000000
    6       11.195700   0.000000
    7       11.959656   0.000000
    8       14.218255   0.000000
 
  0.2666667E+00  0.6666667E-01  0.9090909E-01  0.9696970E-02
    1       -5.474919   1.000000
    2        0.972059   1.000000
    3        3.305050   1.000000
    4        3.487819   1.000000
    5        9.006371   0.000000
    6       10.449855   0.000000
    7       11.141899   0.000000
    8       14.593932   0.000000
 
  0.3333333E+00  0.6666667E-01  0.9090909E-01  0.9696970E-02
    1       -4.727963   1.000000
    2       -0.349303   1.000000
    3        3.107369   1.000000
    4        4.019718   1.000000
    5        9.038387   0.000000
    6        9.772546   0.000000
    7       10.883698   0.000000
    8       14.095596   0.000000
 
  0.4000000E+00  0.6666667E-01  0.9090909E-01  0.9696970E-02
    1       -3.859361   1.000000
    2       -1.575211   1.000000
    3        2.888063   1.000000
    4        4.723545   1.000000
    5        8.112048   0.000000
    6        9.958464   0.000000
    7       11.022812   0.000000
    8       13.384786   0.000000
 
  0.4666667E+00  0.6666667E-01  0.9090909E-01  0.4848485E-02
    1       -3.126867   1.000000
    2       -2.428674   1.000000
    3        2.814020   1.000000
    4        5.096702   1.000000
    5        7.631413   0.000000
    6       10.003165   0.000000
    7       11.246128   0.000000
    8       13.000370   0.000000
 
  0.1333333E+00  0.1333333E+00  0.9090909E-01  0.4848485E-02
    1       -6.157963   1.000000
    2        2.647335   1.000000
    3        2.763217   1.000000
    4        3.691345   1.000000
    5        8.498375   0.000000
    6       11.930641   0.000000
    7       12.121432   0.000000
    8       13.285746   0.000000
 
  0.2000000E+00  0.1333333E+00  0.9090909E-01  0.9696970E-02
    1       -5.626026   1.000000
    2        1.646492   1.000000
    3        2.923023   1.000000
    4        3.215720   1.000000
    5        9.004403   0.000000
    6       10.872267   0.000000
    7       12.116589   0.000000
    8       13.694034   0.000000
 
  0.2666667E+00  0.1333333E+00  0.9090909E-01  0.9696970E-02
    1       -4.950678   1.000000
    2        0.391438   1.000000
    3        2.455298   1.000000
    4        3.832800   1.000000
    5        9.488390   0.000000
    6        9.837794   0.000000
    7       11.800101   0.000000
    8       14.016057   0.000000
 
  0.3333333E+00  0.1333333E+00  0.9090909E-01  0.9696970E-02
    1       -4.142752   1.000000
    2       -0.850332   1.000000
    3        2.139143   1.000000
    4        4.553167   1.000000
    5        8.565839   0.000000
    6       10.297205   0.000000
    7       11.533635   0.000000
    8       13.646573   0.000000
 
  0.4000000E+00  0.1333333E+00  0.9090909E-01  0.9696970E-02
    1       -3.252417   1.000000
    2       -1.968096   1.000000
    3        1.982296   1.000000
    4        5.174741   0.999073
    5        7.741781   0.000000
    6       10.818335   0.000000
    7       11.380495   0.000000
    8       13.162314   0.000000
 
  0.2000000E+00  0.2000000E+00  0.9090909E-01  0.4848485E-02
    1       -5.025288   1.000000
    2        0.886526   1.000000
    3        1.960010   1.000000
    4        3.769184   1.000000
    5        9.598188   0.000000
    6        9.915577   0.000000
    7       12.926649   0.000000
    8       13.243213   0.000000
 
  0.2666667E+00  0.2000000E+00  0.9090909E-01  0.9696970E-02
    1       -4.287382   1.000000
    2       -0.118885   1.000000
    3        1.333299   1.000000
    4        4.458891   1.000000
    5        8.896474   0.000000
    6       10.274518   0.000000
    7       12.658015   0.000000
    8       13.505277   0.000000
 
  0.3333333E+00  0.2000000E+00  0.9090909E-01  0.9696970E-02
    1       -3.432991   1.000000
    2       -1.227688   1.000000
    3        1.027671   1.000000
    4        5.183830   0.997852
    5        7.951546   0.000000
    6       10.985050   0.000000
    7       12.232398   0.000000
    8       13.283167   0.000000
 
  0.4000000E+00  0.2000000E+00  0.9090909E-01  0.4848485E-02
    1       -2.717975   1.000000
    2       -2.038990   1.000000
    3        0.933949   1.000000
    4        5.600592   0.000000
    5        7.457042   0.000000
    6       11.537660   0.000000
    7       11.822590   0.000000
    8       13.107313   0.000000
 
  0.2666667E+00  0.2666667E+00  0.9090909E-01  0.4848485E-02
    1       -3.498893   1.000000
    2       -0.693312   1.000000
    3        0.414470   1.000000
    4        5.178831   0.998636
    5        8.059108   0.000000
    6       10.958758   0.000000
    7       12.763385   0.000000
    8       13.216728   0.000000
 
  0.3333333E+00  0.2666667E+00  0.9090909E-01  0.9696970E-02
    1       -2.637209   1.000000
    2       -1.510194   1.000000
    3        0.003495   1.000000
    4        5.879618   0.000000
    5        7.295093   0.000000
    6       11.609079   0.000000
    7       12.350983   0.000000
    8       12.959965   0.000000
 
  0.3333333E+00  0.3333333E+00  0.9090909E-01  0.1616162E-02
    1       -1.903492   1.000000
    2       -1.903492   1.000000
    3       -0.513126   1.000000
    4        6.597481   0.000000
    5        6.597481   0.000000
    6       12.085606   0.000000
    7       12.085607   0.000000
    8       12.781988   0.000000
 
  0.0000000E+00  0.0000000E+00  0.1818182E+00  0.8080808E-03
    1       -6.877585   1.000000
    2        0.608448   1.000000
    3        5.805316   0.000000
    4        5.805316   0.000000
    5        9.242801   0.000000
    6       11.790377   0.000000
    7       11.790377   0.000000
    8       13.508974   0.000000
 
  0.6666667E-01 -0.6938894E-17  0.1818182E+00  0.4848485E-02
    1       -6.800888   1.000000
    2        0.688599   1.000000
    3        5.411077   0.000177
    4        5.613501   0.000000
    5        9.296596   0.000000
    6       11.774979   0.000000
    7       12.140248   0.000000
    8       13.428117   0.000000
 
  0.1333333E+00 -0.1387779E-16  0.1818182E+00  0.4848485E-02
    1       -6.571355   1.000000
    2        0.927863   1.000000
    3        4.417910   1.000000
    4        5.150751   0.999925
    5        9.465353   0.000000
    6       11.592119   0.000000
    7       12.892303   0.000000
    8       13.072999   0.000000
 
  0.2000000E+00 -0.1387779E-16  0.1818182E+00  0.4848485E-02
    1       -6.190679   1.000000
    2        1.321379   1.000000
    3        3.137826   1.000000
    4        4.603705   1.000000
    5        9.713851   0.000000
    6       11.198433   0.000000
    7       11.892760   0.000000
    8       14.385991   0.000000
 
  0.2666667E+00  0.2775558E-16  0.1818182E+00  0.4848485E-02
    1       -5.661866   1.000000
    2        1.703390   1.000000
    3        1.928838   1.000000
    4        4.092922   1.000000
    5        9.724071   0.000000
    6       10.510970   0.000000
    7       11.313653   0.000000
    8       15.905556   0.000000
 
  0.3333333E+00 -0.5551115E-16  0.1818182E+00  0.4848485E-02
    1       -4.989863   1.000000
    2        0.401139   1.000000
    3        2.551023   1.000000
    4        3.679052   1.000000
    5        8.711216   0.000000
    6       10.279731   0.000000
    7       11.459133   0.000000
    8       15.591374   0.000000
 
  0.4000000E+00 -0.2775558E-16  0.1818182E+00  0.4848485E-02
    1       -4.184706   1.000000
    2       -0.876922   1.000000
    3        3.307504   1.000000
    4        3.391649   1.000000
    5        7.514680   0.000000
    6       10.131349   0.000000
    7       11.988461   0.000000
    8       14.923570   0.000000
 
  0.4666667E+00 -0.5551115E-16  0.1818182E+00  0.4848485E-02
    1       -3.294918   1.000000
    2       -2.008634   1.000000
    3        3.245002   1.000000
    4        3.966926   1.000000
    5        6.615040   0.000000
    6       10.037065   0.000000
    7       12.541329   0.000000
    8       14.296411   0.000000
 
  0.6666667E-01  0.6666667E-01  0.1818182E+00  0.4848485E-02
    1       -6.647773   1.000000
    2        0.848350   1.000000
    3        4.780429   1.000000
    4        5.218879   0.968851
    5        9.416633   0.000000
    6       11.862912   0.000000
    7       12.447784   0.000000
    8       13.221276   0.000000
 
  0.1333333E+00  0.6666667E-01  0.1818182E+00  0.9696970E-02
    1       -6.342676   1.000000
    2        1.165169   1.000000
    3        3.732183   1.000000
    4        4.614136   1.000000
    5        9.665858   0.000000
    6       11.685422   0.000000
    7       12.201496   0.000000
    8       13.491879   0.000000
 
  0.2000000E+00  0.6666667E-01  0.1818182E+00  0.9696970E-02
    1       -5.887923   1.000000
    2        1.628706   1.000000
    3        2.456683   1.000000
    4        4.031955   1.000000
    5        9.956657   0.000000
    6       10.818021   0.000000
    7       11.719797   0.000000
    8       14.540668   0.000000
 
  0.2666667E+00  0.6666667E-01  0.1818182E+00  0.9696970E-02
    1       -5.287417   1.000000
    2        1.095603   1.000000
    3        2.256526   1.000000
    4        3.546502   1.000000
    5        9.347542   0.000000
    6       10.500581   0.000000
    7       11.519302   0.000000
    8       15.277516   0.000000
 
  0.3333333E+00  0.6666667E-01  0.1818182E+00  0.9696970E-02
    1       -4.547957   1.000000
    2       -0.209899   1.000000
    3        2.963783   1.000000
    4        3.199106   1.000000
    5        8.112893   0.000000
    6       10.543089   0.000000
    7       11.771858   0.000000
    8       14.914518   0.000000
 
  0.4000000E+00  0.6666667E-01  0.1818182E+00  0.9696970E-02
    1       -3.688059   1.000000
    2       -1.423891   1.000000
    3        2.955620   1.000000
    4        3.735819   1.000000
    5        7.016080   0.000000
    6       10.458058   0.000000
    7       12.323829   0.000000
    8       14.340393   0.000000
 
  0.4666667E+00  0.6666667E-01  0.1818182E+00  0.4848485E-02
    1       -2.964007   1.000000
    2       -2.267903   1.000000
    3        2.882813   1.000000
    4        4.148260   1.000000
    5        6.482164   0.000000
    6       10.416254   0.000000
    7       12.686826   0.000000
    8       13.978077   0.000000
 
  0.1333333E+00  0.1333333E+00  0.1818182E+00  0.4848485E-02
    1       -5.963500   1.000000
    2        1.555399   1.000000
    3        2.874621   1.000000
    4        3.774797   1.000000
    5       10.031512   0.000000
    6       11.038747   0.000000
    7       12.286724   0.000000
    8       13.593289   0.000000
 
  0.2000000E+00  0.1333333E+00  0.1818182E+00  0.9696970E-02
    1       -5.437001   1.000000
    2        1.759944   1.000000
    3        2.097216   1.000000
    4        3.065940   1.000000
    5        9.873729   0.000000
    6       10.530509   0.000000
    7       12.319613   0.000000
    8       14.171308   0.000000
 
  0.2666667E+00  0.1333333E+00  0.1818182E+00  0.9696970E-02
    1       -4.768456   1.000000
    2        0.523282   1.000000
    3        2.504030   1.000000
    4        2.828437   1.000000
    5        8.670686   0.000000
    6       11.047114   0.000000
    7       12.114591   0.000000
    8       14.304340   0.000000
 
  0.3333333E+00  0.1333333E+00  0.1818182E+00  0.9696970E-02
    1       -3.968572   1.000000
    2       -0.706402   1.000000
    3        2.226309   1.000000
    4        3.544234   1.000000
    5        7.516542   0.000000
    6       11.372727   0.000000
    7       12.186664   0.000000
    8       13.842306   0.000000
 
  0.4000000E+00  0.1333333E+00  0.1818182E+00  0.9696970E-02
    1       -3.087306   1.000000
    2       -1.813246   1.000000
    3        2.072722   1.000000
    4        4.209267   1.000000
    5        6.637062   0.000000
    6       11.380341   0.000000
    7       12.654296   0.000000
    8       13.396678   0.000000
 
  0.2000000E+00  0.2000000E+00  0.1818182E+00  0.4848485E-02
    1       -4.842325   1.000000
    2        1.016232   1.000000
    3        2.033685   1.000000
    4        2.743291   1.000000
    5        8.917100   0.000000
    6       11.082007   0.000000
    7       12.841629   0.000000
    8       13.996625   0.000000
 
  0.2666667E+00  0.2000000E+00  0.1818182E+00  0.9696970E-02
    1       -4.111770   1.000000
    2        0.018733   1.000000
    3        1.435109   1.000000
    4        3.437993   1.000000
    5        7.886778   0.000000
    6       11.713634   0.000000
    7       12.537262   0.000000
    8       13.787972   0.000000
 
  0.3333333E+00  0.2000000E+00  0.1818182E+00  0.9696970E-02
    1       -3.265797   1.000000
    2       -1.080540   1.000000
    3        1.136071   1.000000
    4        4.193200   1.000000
    5        6.917130   0.000000
    6       12.181145   0.000000
    7       12.354129   0.000000
    8       13.389508   0.000000
 
  0.4000000E+00  0.2000000E+00  0.1818182E+00  0.4848485E-02
    1       -2.558159   1.000000
    2       -1.883877   1.000000
    3        1.043916   1.000000
    4        4.640650   1.000000
    5        6.394175   0.000000
    6       12.052636   0.000000
    7       12.886712   0.000000
    8       12.971932   0.000000
 
  0.2666667E+00  0.2666667E+00  0.1818182E+00  0.4848485E-02
    1       -3.331010   1.000000
    2       -0.549703   1.000000
    3        0.529852   1.000000
    4        4.177766   1.000000
    5        7.059919   0.000000
    6       11.970436   0.000000
    7       12.472813   0.000000
    8       13.959867   0.000000
 
  0.3333333E+00  0.2666667E+00  0.1818182E+00  0.9696970E-02
    1       -2.477540   1.000000
    2       -1.360339   1.000000
    3        0.125862   1.000000
    4        4.902182   1.000000
    5        6.293045   0.000000
    6       11.652486   0.000000
    7       13.033849   0.000000
    8       13.630442   0.000000
 
  0.3333333E+00  0.3333333E+00  0.1818182E+00  0.1616162E-02
    1       -1.749999   1.000000
    2       -1.749999   1.000000
    3       -0.385417   1.000000
    4        5.617887   0.000000
    5        5.617887   0.000000
    6       11.416606   0.000000
    7       13.474696   0.000000
    8       13.474697   0.000000
 
  0.0000000E+00  0.0000000E+00  0.2727273E+00  0.8080808E-03
    1       -6.564823   1.000000
    2       -0.542635   1.000000
    3        5.906171   0.000000
    4        5.906171   0.000000
    5       11.213377   0.000000
    6       11.877045   0.000000
    7       11.877045   0.000000
    8       13.452982   0.000000
 
  0.6666667E-01 -0.6938894E-17  0.2727273E+00  0.4848485E-02
    1       -6.489583   1.000000
    2       -0.459605   1.000000
    3        5.521522   0.000000
    4        5.711987   0.000000
    5       11.201420   0.000000
    6       11.945248   0.000000
    7       12.229834   0.000000
    8       13.153491   0.000000
 
  0.1333333E+00 -0.1387779E-16  0.2727273E+00  0.4848485E-02
    1       -6.264368   1.000000
    2       -0.211662   1.000000
    3        4.549357   1.000000
    4        5.244206   0.874476
    5       11.160149   0.000000
    6       11.949217   0.000000
    7       12.308190   0.000000
    8       13.169339   0.000000
 
  0.2000000E+00 -0.1387779E-16  0.2727273E+00  0.4848485E-02
    1       -5.890761   1.000000
    2        0.197143   1.000000
    3        3.290713   1.000000
    4        4.692054   1.000000
    5       10.591560   0.000000
    6       11.315998   0.000000
    7       12.214445   0.000000
    8       14.490276   0.000000
 
  0.2666667E+00  0.2775558E-16  0.2727273E+00  0.4848485E-02
    1       -5.371551   1.000000
    2        0.755677   1.000000
    3        1.946016   1.000000
    4        4.177029   1.000000
    5        9.234057   0.000000
    6       10.987765   0.000000
    7       12.570597   0.000000
    8       15.945801   0.000000
 
  0.3333333E+00 -0.5551115E-16  0.2727273E+00  0.4848485E-02
    1       -4.711378   1.000000
    2        0.589794   1.000000
    3        1.477315   1.000000
    4        3.759952   1.000000
    5        7.817024   0.000000
    6       10.719945   0.000000
    7       13.096348   0.000000
    8       15.857152   0.000000
 
  0.4000000E+00 -0.2775558E-16  0.2727273E+00  0.4848485E-02
    1       -3.919893   1.000000
    2       -0.663827   1.000000
    3        2.262048   1.000000
    4        3.470410   1.000000
    5        6.517692   0.000000
    6       10.520771   0.000000
    7       13.711340   0.000000
    8       15.513972   0.000000
 
  0.4666667E+00 -0.5551115E-16  0.2727273E+00  0.4848485E-02
    1       -3.044670   1.000000
    2       -1.778140   1.000000
    3        2.964611   1.000000
    4        3.322691   1.000000
    5        5.553881   0.000000
    6       10.415558   0.000000
    7       14.304418   0.000000
    8       15.074988   0.000000
 
  0.6666667E-01  0.6666667E-01  0.2727273E+00  0.4848485E-02
    1       -6.339356   1.000000
    2       -0.294098   1.000000
    3        4.904226   1.000000
    4        5.316941   0.181559
    5       11.238163   0.000000
    6       12.133311   0.000000
    7       12.341649   0.000000
    8       12.869844   0.000000
 
  0.1333333E+00  0.6666667E-01  0.2727273E+00  0.9696970E-02
    1       -6.039948   1.000000
    2        0.034445   1.000000
    3        3.875610   1.000000
    4        4.712544   1.000000
    5       11.158055   0.000000
    6       11.479495   0.000000
    7       12.304454   0.000000
    8       13.588686   0.000000
 