       N       E                     dE             d eps       ncg     rms          rms(c)
DAV:   1     0.144087582655E+02    0.14409E+02   -0.37252E+03  2720   0.944E+02
DAV:   2    -0.158670372941E+02   -0.30276E+02   -0.26973E+02  3440   0.163E+02
DAV:   3    -0.170444621019E+02   -0.11774E+01   -0.11669E+01  3456   0.287E+01
DAV:   4    -0.170508171240E+02   -0.63550E-02   -0.63441E-02  3036   0.229E+00
DAV:   5    -0.170508716889E+02   -0.54565E-04   -0.54561E-04  3408   0.214E-01    0.531E+00
DAV:   6    -0.155723407119E+02    0.14785E+01   -0.14298E+00  2972   0.867E+00    0.251E+00
DAV:   7    -0.153263272377E+02    0.24601E+00   -0.73058E-01  3280   0.622E+00    0.780E-01
DAV:   8    -0.153318076808E+02   -0.54804E-02   -0.86571E-02  2916   0.234E+00    0.392E-01
DAV:   9    -0.153224135294E+02    0.93942E-02   -0.15581E-02  2924   0.940E-01    0.515E-02
DAV:  10    -0.153224593097E+02   -0.45780E-04   -0.88353E-04  3388   0.231E-01    0.320E-02
DAV:  11    -0.153224452066E+02    0.14103E-04   -0.80028E-05  2884   0.706E-02    0.625E-03
DAV:  12    -0.153224429533E+02    0.22533E-05   -0.76193E-06  3052   0.217E-02    0.177E-03
DAV:  13    -0.153224428815E+02    0.71748E-07   -0.20216E-07  1728   0.438E-03
   1 F= -.15322443E+02 E0= -.15321855E+02  d E =-.117603E-02
