unknown system                          
           1
     1.535534   -2.659623    0.000000
     1.535534    2.659623    0.000000
     0.000000    0.000000    3.529122
   Mg   B 
   1   2
Direct configuration=     1
   0.00000000  0.00000000  0.00000000
   0.66666667  0.33333333  0.50000000
   0.33333333  0.66666667  0.50000000
