
     Program PWSCF v.6.6 starts on  2Apr2024 at  0: 0:10 

     This program is part of the open-source Quantum ESPRESSO suite
     for quantum simulation of materials; please cite
         "P. Giannozzi et al., J. Phys.:Condens. Matter 21 395502 (2009);
         "P. Giannozzi et al., J. Phys.:Condens. Matter 29 465901 (2017);
          URL http://www.quantum-espresso.org", 
     in publications or presentations arising from this work. More details at
     http://www.quantum-espresso.org/quote

     Parallel version (MPI), running on    24 processors

     MPI processes distributed on     1 nodes
     R & G space division:  proc/nbgrp/npool/nimage =      24
     Fft bands division:     nmany     =       1
     Waiting for input...
     Reading input from standard input

     Current dimensions of program PWSCF are:
     Max number of different atomic species (ntypx) = 10
     Max number of k-points (npk) = 250000
     Max angular momentum in pseudopotentials (lmaxx) =  3

     Subspace diagonalization in iterative solution of the eigenvalue problem:
     a serial algorithm will be used

     Message from routine setup:
     using ibrav=0 with symmetry is DISCOURAGED, use correct ibrav instead
 
     Parallelization info
     --------------------
     sticks:   dense  smooth     PW     G-vecs:    dense   smooth      PW
     Min          27      13      4                  639      223      41
     Max          28      14      5                  644      228      43
     Sum         649     313    109                15347     5413    1011
 


     bravais-lattice index     =            0
     lattice parameter (alat)  =       5.7878  a.u.
     unit-cell volume          =     193.0207 (a.u.)^3
     number of atoms/cell      =            3
     number of atomic types    =            2
     number of electrons       =        16.00
     number of Kohn-Sham states=           12
     kinetic-energy cutoff     =      35.0000  Ry
     charge density cutoff     =     280.0000  Ry
     convergence threshold     =      1.0E-16
     mixing beta               =       0.7000
     number of iterations used =            8  plain     mixing
     Exchange-correlation=  SLA  PW   PBX  PBC
                           (   1   4   3   4   0   0   0)
     nstep                     =          300


     celldm(1)=   5.787782  celldm(2)=   0.000000  celldm(3)=   0.000000
     celldm(4)=   0.000000  celldm(5)=   0.000000  celldm(6)=   0.000000

     crystal axes: (cart. coord. in units of alat)
               a(1) = (   0.500000  -0.866025   0.000000 )  
               a(2) = (   0.500000   0.866025   0.000000 )  
               a(3) = (   0.000000   0.000000   1.149573 )  

     reciprocal axes: (cart. coord. in units 2 pi/alat)
               b(1) = (  1.000000 -0.577350  0.000000 )  
               b(2) = (  1.000000  0.577350  0.000000 )  
               b(3) = (  0.000000  0.000000  0.869888 )  


     PseudoPot. # 1 for B  read from file:
     ../../pp/B.upf
     MD5 check sum: cc6de2960df11db49a60e589f9ebb39b
     Pseudo is Ultrasoft + core correction, Zval =  3.0
     Generated by new atomic code, or converted to UPF format
     Using radial grid of  781 points,  4 beta functions with: 
                l(1) =   0
                l(2) =   0
                l(3) =   1
                l(4) =   1
     Q(r) pseudized with  8 coefficients,  rinner =    1.100   1.100   1.100


     PseudoPot. # 2 for Mg read from file:
     ../../pp/Mg.upf
     MD5 check sum: 8ffbd8f729fef71095aac5bd8316fb1f
     Pseudo is Ultrasoft, Zval = 10.0
     Generated by new atomic code, or converted to UPF format
     Using radial grid of  821 points,  7 beta functions with: 
                l(1) =   0
                l(2) =   0
                l(3) =   0
                l(4) =   1
                l(5) =   1
                l(6) =   2
                l(7) =   2
     Q(r) pseudized with  8 coefficients,  rinner =    1.200   1.200   1.200
                                                       1.200   1.200

     atomic species   valence    mass     pseudopotential
        B              3.00    10.81100     B ( 1.00)
        Mg            10.00    24.30500     Mg( 1.00)

     24 Sym. Ops., with inversion, found



   Cartesian axes

     site n.     atom                  positions (alat units)
         1           Mg  tau(   1) = (   0.0000000   0.0000000   0.0000000  )
         2           B   tau(   2) = (   0.5000000  -0.2886757   0.5747867  )
         3           B   tau(   3) = (   0.5000000   0.2886757   0.5747867  )

     number of k points=   162  Gaussian smearing, width (Ry)=  0.0200

     Number of k-points >= 100: set verbosity='high' to print them.

     Dense  grid:    15347 G-vectors     FFT dimensions: (  32,  32,  36)

     Smooth grid:     5413 G-vectors     FFT dimensions: (  24,  24,  25)

     Estimated max dynamical RAM per process >      10.59 MB

     Estimated total dynamical RAM >     254.18 MB

     Initial potential from superposition of free atoms

     starting charge   15.69921, renormalised to   16.00000
     Starting wfcs are   13 randomized atomic wfcs

     total cpu time spent up to now is        0.4 secs

     Self-consistent Calculation

     iteration #  1     ecut=    35.00 Ry     beta= 0.70
     Davidson diagonalization with overlap
     ethr =  1.00E-02,  avg # of iterations =  3.7

     total cpu time spent up to now is        1.1 secs

     total energy              =    -137.99834089 Ry
     estimated scf accuracy    <       0.44426961 Ry

     iteration #  2     ecut=    35.00 Ry     beta= 0.70
     Davidson diagonalization with overlap
     ethr =  2.78E-03,  avg # of iterations =  2.3

     total cpu time spent up to now is        1.7 secs

     total energy              =    -138.12307131 Ry
     estimated scf accuracy    <       0.08260703 Ry

     iteration #  3     ecut=    35.00 Ry     beta= 0.70
     Davidson diagonalization with overlap
     ethr =  5.16E-04,  avg # of iterations =  2.1

     total cpu time spent up to now is        2.3 secs

     total energy              =    -138.13903152 Ry
     estimated scf accuracy    <       0.00086656 Ry

     iteration #  4     ecut=    35.00 Ry     beta= 0.70
     Davidson diagonalization with overlap
     ethr =  5.42E-06,  avg # of iterations =  4.7

     total cpu time spent up to now is        3.0 secs

     total energy              =    -138.13914975 Ry
     estimated scf accuracy    <       0.00003401 Ry

     iteration #  5     ecut=    35.00 Ry     beta= 0.70
     Davidson diagonalization with overlap
     ethr =  2.13E-07,  avg # of iterations =  2.0

     total cpu time spent up to now is        3.5 secs

     total energy              =    -138.13915287 Ry
     estimated scf accuracy    <       0.00000115 Ry

     iteration #  6     ecut=    35.00 Ry     beta= 0.70
     Davidson diagonalization with overlap
     ethr =  7.19E-09,  avg # of iterations =  2.1

     total cpu time spent up to now is        4.1 secs

     total energy              =    -138.13915326 Ry
     estimated scf accuracy    <       0.00000003 Ry

     iteration #  7     ecut=    35.00 Ry     beta= 0.70
     Davidson diagonalization with overlap
     ethr =  1.62E-10,  avg # of iterations =  2.7

     total cpu time spent up to now is        4.7 secs

     total energy              =    -138.13915327 Ry
     estimated scf accuracy    <          7.0E-10 Ry

     iteration #  8     ecut=    35.00 Ry     beta= 0.70
     Davidson diagonalization with overlap
     ethr =  4.36E-12,  avg # of iterations =  2.4

     total cpu time spent up to now is        5.3 secs

     total energy              =    -138.13915327 Ry
     estimated scf accuracy    <          5.7E-12 Ry

     iteration #  9     ecut=    35.00 Ry     beta= 0.70
     Davidson diagonalization with overlap
     ethr =  1.00E-13,  avg # of iterations =  2.5

     total cpu time spent up to now is        5.9 secs

     total energy              =    -138.13915327 Ry
     estimated scf accuracy    <          8.3E-13 Ry

     iteration # 10     ecut=    35.00 Ry     beta= 0.70
     Davidson diagonalization with overlap
     ethr =  1.00E-13,  avg # of iterations =  1.0

     total cpu time spent up to now is        6.4 secs

     total energy              =    -138.13915327 Ry
     estimated scf accuracy    <          1.1E-14 Ry

     iteration # 11     ecut=    35.00 Ry     beta= 0.70
     Davidson diagonalization with overlap
     ethr =  1.00E-13,  avg # of iterations =  1.0

     total cpu time spent up to now is        6.8 secs

     total energy              =    -138.13915327 Ry
     estimated scf accuracy    <          7.2E-16 Ry

     iteration # 12     ecut=    35.00 Ry     beta= 0.70
     Davidson diagonalization with overlap
     ethr =  1.00E-13,  avg # of iterations =  1.0

     total cpu time spent up to now is        7.3 secs

     End of self-consistent calculation

     Number of k-points >= 100: set verbosity='high' to print the bands.

     the Fermi energy is     9.1701 ev

!    total energy              =    -138.13915327 Ry
     estimated scf accuracy    <          6.6E-17 Ry
     smearing contrib. (-TS)   =      -0.00193193 Ry
     internal energy E=F+TS    =    -138.13722134 Ry

     The total energy is F=E-TS. E is the sum of the following terms:
     one-electron contribution =     -88.17424135 Ry
     hartree contribution      =      47.22918113 Ry
     xc contribution           =     -22.96707686 Ry
     ewald contribution        =     -74.22508427 Ry

     convergence has been achieved in  12 iterations

     Forces acting on atoms (cartesian axes, Ry/au):

     atom    1 type  2   force =     0.00000000    0.00000000    0.00000000
     atom    2 type  1   force =     0.00000000    0.00000000   -0.00000000
     atom    3 type  1   force =    -0.00000000   -0.00000000   -0.00000000

     Total force =     0.000000     Total SCF correction =     0.000000


     Computing stress (Cartesian axis) and pressure

          total   stress  (Ry/bohr**3)                   (kbar)     P=        5.55
   0.00006321   0.00000000   0.00000000            9.30        0.00        0.00
   0.00000000   0.00006321   0.00000000            0.00        9.30        0.00
   0.00000000   0.00000000  -0.00001317            0.00        0.00       -1.94


     BFGS Geometry Optimization

     number of scf cycles    =   1
     number of bfgs steps    =   0

     enthalpy new            =    -138.1391532695 Ry

     new trust radius        =       0.0043909283 bohr
     new conv_thr            =            1.0E-16 Ry

     new unit-cell volume =    193.56744 a.u.^3 (    28.68374 Ang^3 )
     density =      2.65877 g/cm^3

CELL_PARAMETERS (angstrom)
   1.533801088  -2.656621414   0.000000000
   1.533801088   2.656621414   0.000000000
   0.000000000   0.000000000   3.519710922

ATOMIC_POSITIONS (crystal)
Mg            0.0000000000        0.0000000000        0.0000000000
B             0.6666670000        0.3333330000        0.5000000000
B             0.3333330000        0.6666670000        0.5000000000



     Writing output data file ./Mg1B2.save/
     NEW-OLD atomic charge density approx. for the potential
     extrapolated charge   16.04435, renormalised to   16.00000

     total cpu time spent up to now is        7.5 secs

     Self-consistent Calculation

     iteration #  1     ecut=    35.00 Ry     beta= 0.70
     Davidson diagonalization with overlap
     ethr =  1.00E-06,  avg # of iterations =  3.2

     total cpu time spent up to now is        8.2 secs

     total energy              =    -138.13885944 Ry
     estimated scf accuracy    <       0.00016098 Ry

     iteration #  2     ecut=    35.00 Ry     beta= 0.70
     Davidson diagonalization with overlap
     ethr =  1.01E-06,  avg # of iterations =  2.3

     total cpu time spent up to now is        8.9 secs

     total energy              =    -138.13918208 Ry
     estimated scf accuracy    <       0.00021208 Ry

     iteration #  3     ecut=    35.00 Ry     beta= 0.70
     Davidson diagonalization with overlap
     ethr =  1.01E-06,  avg # of iterations =  1.1

     total cpu time spent up to now is        9.3 secs

     total energy              =    -138.13918432 Ry
     estimated scf accuracy    <       0.00004003 Ry

     iteration #  4     ecut=    35.00 Ry     beta= 0.70
     Davidson diagonalization with overlap
     ethr =  2.50E-07,  avg # of iterations =  1.0

     total cpu time spent up to now is        9.8 secs

     total energy              =    -138.13917377 Ry
     estimated scf accuracy    <       0.00001867 Ry

     iteration #  5     ecut=    35.00 Ry     beta= 0.70
     Davidson diagonalization with overlap
     ethr =  1.17E-07,  avg # of iterations =  2.0

     total cpu time spent up to now is       10.3 secs

     total energy              =    -138.13917583 Ry
     estimated scf accuracy    <       0.00000069 Ry

     iteration #  6     ecut=    35.00 Ry     beta= 0.70
     Davidson diagonalization with overlap
     ethr =  4.30E-09,  avg # of iterations =  2.0

     total cpu time spent up to now is       10.9 secs

     total energy              =    -138.13917598 Ry
     estimated scf accuracy    <          1.3E-09 Ry

     iteration #  7     ecut=    35.00 Ry     beta= 0.70
     Davidson diagonalization with overlap
     ethr =  8.40E-12,  avg # of iterations =  2.9

     total cpu time spent up to now is       11.5 secs

     total energy              =    -138.13917597 Ry
     estimated scf accuracy    <       0.00000001 Ry

     iteration #  8     ecut=    35.00 Ry     beta= 0.70
     Davidson diagonalization with overlap
     ethr =  8.40E-12,  avg # of iterations =  2.0

     total cpu time spent up to now is       12.1 secs

     total energy              =    -138.13917597 Ry
     estimated scf accuracy    <          7.7E-10 Ry

     iteration #  9     ecut=    35.00 Ry     beta= 0.70
     Davidson diagonalization with overlap
     ethr =  4.80E-12,  avg # of iterations =  2.0

     total cpu time spent up to now is       12.7 secs

     total energy              =    -138.13917597 Ry
     estimated scf accuracy    <          9.0E-13 Ry

     iteration # 10     ecut=    35.00 Ry     beta= 0.70
     Davidson diagonalization with overlap
     ethr =  1.00E-13,  avg # of iterations =  1.7

     total cpu time spent up to now is       13.2 secs

     total energy              =    -138.13917597 Ry
     estimated scf accuracy    <          4.2E-13 Ry

     iteration # 11     ecut=    35.00 Ry     beta= 0.70
     Davidson diagonalization with overlap
     ethr =  1.00E-13,  avg # of iterations =  1.0

     total cpu time spent up to now is       13.6 secs

     total energy              =    -138.13917597 Ry
     estimated scf accuracy    <          7.3E-15 Ry

     iteration # 12     ecut=    35.00 Ry     beta= 0.70
     Davidson diagonalization with overlap
     ethr =  1.00E-13,  avg # of iterations =  1.0

     total cpu time spent up to now is       14.1 secs

     total energy              =    -138.13917597 Ry
     estimated scf accuracy    <          3.3E-16 Ry

     iteration # 13     ecut=    35.00 Ry     beta= 0.70
     Davidson diagonalization with overlap
     ethr =  1.00E-13,  avg # of iterations =  1.0

     total cpu time spent up to now is       14.5 secs

     total energy              =    -138.13917597 Ry
     estimated scf accuracy    <          1.5E-16 Ry

     iteration # 14     ecut=    35.00 Ry     beta= 0.70
     Davidson diagonalization with overlap
     ethr =  1.00E-13,  avg # of iterations =  1.0

     total cpu time spent up to now is       15.0 secs

     End of self-consistent calculation

     Number of k-points >= 100: set verbosity='high' to print the bands.

     the Fermi energy is     9.1375 ev

!    total energy              =    -138.13917597 Ry
     estimated scf accuracy    <          1.8E-17 Ry
     smearing contrib. (-TS)   =      -0.00194570 Ry
     internal energy E=F+TS    =    -138.13723027 Ry

     The total energy is F=E-TS. E is the sum of the following terms:
     one-electron contribution =     -88.28174407 Ry
     hartree contribution      =      47.26222713 Ry
     xc contribution           =     -22.96172231 Ry
     ewald contribution        =     -74.15599102 Ry

     convergence has been achieved in  14 iterations

     Forces acting on atoms (cartesian axes, Ry/au):

     atom    1 type  2   force =     0.00000000   -0.00000000    0.00000000
     atom    2 type  1   force =     0.00000000    0.00000000   -0.00000000
     atom    3 type  1   force =     0.00000000    0.00000000    0.00000000

     Total force =     0.000000     Total SCF correction =     0.000000


     Computing stress (Cartesian axis) and pressure

          total   stress  (Ry/bohr**3)                   (kbar)     P=        0.06
   0.00000833   0.00000000   0.00000000            1.23        0.00        0.00
  -0.00000000   0.00000833   0.00000000           -0.00        1.23        0.00
   0.00000000   0.00000000  -0.00001548            0.00        0.00       -2.28


     number of scf cycles    =   2
     number of bfgs steps    =   1

     enthalpy old            =    -138.1391532695 Ry
     enthalpy new            =    -138.1391759749 Ry

     CASE: enthalpy_new < enthalpy_old

     new trust radius        =       0.0013065046 bohr
     new conv_thr            =            1.0E-18 Ry

     new unit-cell volume =    193.59125 a.u.^3 (    28.68726 Ang^3 )
     density =      2.65845 g/cm^3

CELL_PARAMETERS (angstrom)
   1.534255674  -2.657408779   0.000000000
   1.534255674   2.657408779   0.000000000
   0.000000000   0.000000000   3.518058306

ATOMIC_POSITIONS (crystal)
Mg            0.0000000000        0.0000000000        0.0000000000
B             0.6666670000        0.3333330000        0.5000000000
B             0.3333330000        0.6666670000        0.5000000000



     Writing output data file ./Mg1B2.save/
     NEW-OLD atomic charge density approx. for the potential
     extrapolated charge   16.00193, renormalised to   16.00000

     total cpu time spent up to now is       15.2 secs

     Self-consistent Calculation

     iteration #  1     ecut=    35.00 Ry     beta= 0.70
     Davidson diagonalization with overlap
     ethr =  1.00E-06,  avg # of iterations =  2.0

     Threshold (ethr) on eigenvalues was too large:
     Diagonalizing with lowered threshold

     Davidson diagonalization with overlap
     ethr =  1.76E-09,  avg # of iterations =  2.0

     total cpu time spent up to now is       16.3 secs

     total energy              =    -138.13917691 Ry
     estimated scf accuracy    <       0.00000027 Ry

     iteration #  2     ecut=    35.00 Ry     beta= 0.70
     Davidson diagonalization with overlap
     ethr =  1.68E-09,  avg # of iterations =  2.2

     total cpu time spent up to now is       16.9 secs

     total energy              =    -138.13917749 Ry
     estimated scf accuracy    <       0.00000035 Ry

     iteration #  3     ecut=    35.00 Ry     beta= 0.70
     Davidson diagonalization with overlap
     ethr =  1.68E-09,  avg # of iterations =  1.3

     total cpu time spent up to now is       17.3 secs

     total energy              =    -138.13917748 Ry
     estimated scf accuracy    <       0.00000007 Ry

     iteration #  4     ecut=    35.00 Ry     beta= 0.70
     Davidson diagonalization with overlap
     ethr =  4.52E-10,  avg # of iterations =  1.7

     total cpu time spent up to now is       17.8 secs

     total energy              =    -138.13917747 Ry
     estimated scf accuracy    <       0.00000002 Ry

     iteration #  5     ecut=    35.00 Ry     beta= 0.70
     Davidson diagonalization with overlap
     ethr =  1.11E-10,  avg # of iterations =  2.0

     total cpu time spent up to now is       18.4 secs

     total energy              =    -138.13917747 Ry
     estimated scf accuracy    <          1.5E-10 Ry

     iteration #  6     ecut=    35.00 Ry     beta= 0.70
     Davidson diagonalization with overlap
     ethr =  9.61E-13,  avg # of iterations =  1.9

     total cpu time spent up to now is       18.9 secs

     total energy              =    -138.13917747 Ry
     estimated scf accuracy    <          8.1E-12 Ry

     iteration #  7     ecut=    35.00 Ry     beta= 0.70
     Davidson diagonalization with overlap
     ethr =  1.00E-13,  avg # of iterations =  2.0

     total cpu time spent up to now is       19.5 secs

     total energy              =    -138.13917747 Ry
     estimated scf accuracy    <          1.6E-12 Ry

     iteration #  8     ecut=    35.00 Ry     beta= 0.70
     Davidson diagonalization with overlap
     ethr =  1.00E-13,  avg # of iterations =  1.0

     total cpu time spent up to now is       19.9 secs

     total energy              =    -138.13917747 Ry
     estimated scf accuracy    <          1.5E-15 Ry

     iteration #  9     ecut=    35.00 Ry     beta= 0.70
     Davidson diagonalization with overlap
     ethr =  1.00E-13,  avg # of iterations =  1.0

     total cpu time spent up to now is       20.4 secs

     total energy              =    -138.13917747 Ry
     estimated scf accuracy    <          5.4E-16 Ry

     iteration # 10     ecut=    35.00 Ry     beta= 0.70
     Davidson diagonalization with overlap
     ethr =  1.00E-13,  avg # of iterations =  1.0

     total cpu time spent up to now is       20.8 secs

     total energy              =    -138.13917747 Ry
     estimated scf accuracy    <          1.1E-16 Ry

     iteration # 11     ecut=    35.00 Ry     beta= 0.70
     Davidson diagonalization with overlap
     ethr =  1.00E-13,  avg # of iterations =  1.0

     total cpu time spent up to now is       21.3 secs

     total energy              =    -138.13917747 Ry
     estimated scf accuracy    <          7.9E-16 Ry

     iteration # 12     ecut=    35.00 Ry     beta= 0.70
     Davidson diagonalization with overlap
     ethr =  1.00E-13,  avg # of iterations =  1.0

     total cpu time spent up to now is       21.7 secs

     total energy              =    -138.13917747 Ry
     estimated scf accuracy    <          1.2E-16 Ry

     iteration # 13     ecut=    35.00 Ry     beta= 0.70
     Davidson diagonalization with overlap
     ethr =  1.00E-13,  avg # of iterations =  1.0

     total cpu time spent up to now is       22.2 secs

     total energy              =    -138.13917747 Ry
     estimated scf accuracy    <          2.7E-17 Ry

     iteration # 14     ecut=    35.00 Ry     beta= 0.70
     Davidson diagonalization with overlap
     ethr =  1.00E-13,  avg # of iterations =  1.0

     total cpu time spent up to now is       22.6 secs

     total energy              =    -138.13917747 Ry
     estimated scf accuracy    <          3.7E-18 Ry

     iteration # 15     ecut=    35.00 Ry     beta= 0.70
     Davidson diagonalization with overlap
     ethr =  1.00E-13,  avg # of iterations =  1.0

     total cpu time spent up to now is       23.1 secs

     total energy              =    -138.13917747 Ry
     estimated scf accuracy    <          1.3E-18 Ry

     iteration # 16     ecut=    35.00 Ry     beta= 0.70
     Davidson diagonalization with overlap
     ethr =  1.00E-13,  avg # of iterations =  1.0

     total cpu time spent up to now is       23.5 secs

     End of self-consistent calculation

     Number of k-points >= 100: set verbosity='high' to print the bands.

     the Fermi energy is     9.1355 ev

!    total energy              =    -138.13917747 Ry
     estimated scf accuracy    <          9.0E-21 Ry
     smearing contrib. (-TS)   =      -0.00194967 Ry
     internal energy E=F+TS    =    -138.13722780 Ry

     The total energy is F=E-TS. E is the sum of the following terms:
     one-electron contribution =     -88.28680672 Ry
     hartree contribution      =      47.26411022 Ry
     xc contribution           =     -22.96124395 Ry
     ewald contribution        =     -74.15328736 Ry

     convergence has been achieved in  16 iterations

     Forces acting on atoms (cartesian axes, Ry/au):

     atom    1 type  2   force =     0.00000000   -0.00000000    0.00000000
     atom    2 type  1   force =     0.00000000    0.00000000    0.00000000
     atom    3 type  1   force =     0.00000000    0.00000000    0.00000000

     Total force =     0.000000     Total SCF correction =     0.000000


     Computing stress (Cartesian axis) and pressure

          total   stress  (Ry/bohr**3)                   (kbar)     P=       -0.46
  -0.00000074   0.00000000  -0.00000000           -0.11        0.00       -0.00
   0.00000000  -0.00000074   0.00000000            0.00       -0.11        0.00
  -0.00000000   0.00000000  -0.00000794           -0.00        0.00       -1.17


     number of scf cycles    =   3
     number of bfgs steps    =   2

     enthalpy old            =    -138.1391759749 Ry
     enthalpy new            =    -138.1391774737 Ry

     CASE: enthalpy_new < enthalpy_old

     new trust radius        =       0.0009288916 bohr
     new conv_thr            =            1.0E-18 Ry

     new unit-cell volume =    193.54319 a.u.^3 (    28.68014 Ang^3 )
     density =      2.65911 g/cm^3

CELL_PARAMETERS (angstrom)
   1.534321310  -2.657522464  -0.000000000
   1.534321310   2.657522464  -0.000000000
  -0.000000000   0.000000000   3.516883963

ATOMIC_POSITIONS (crystal)
Mg            0.0000000000       -0.0000000000        0.0000000000
B             0.6666670000        0.3333330000        0.5000000000
B             0.3333330000        0.6666670000        0.5000000000



     Writing output data file ./Mg1B2.save/
     NEW-OLD atomic charge density approx. for the potential
     extrapolated charge   15.99610, renormalised to   16.00000

     total cpu time spent up to now is       23.7 secs

     Self-consistent Calculation

     iteration #  1     ecut=    35.00 Ry     beta= 0.70
     Davidson diagonalization with overlap
     ethr =  1.00E-06,  avg # of iterations =  2.0

     Threshold (ethr) on eigenvalues was too large:
     Diagonalizing with lowered threshold

     Davidson diagonalization with overlap
     ethr =  8.59E-09,  avg # of iterations =  1.0

     total cpu time spent up to now is       24.8 secs

     total energy              =    -138.13917525 Ry
     estimated scf accuracy    <       0.00000137 Ry

     iteration #  2     ecut=    35.00 Ry     beta= 0.70
     Davidson diagonalization with overlap
     ethr =  8.56E-09,  avg # of iterations =  2.1

     total cpu time spent up to now is       25.4 secs

     total energy              =    -138.13917780 Ry
     estimated scf accuracy    <       0.00000173 Ry

     iteration #  3     ecut=    35.00 Ry     beta= 0.70
     Davidson diagonalization with overlap
     ethr =  8.56E-09,  avg # of iterations =  1.0

     total cpu time spent up to now is       25.8 secs

     total energy              =    -138.13917785 Ry
     estimated scf accuracy    <       0.00000031 Ry

     iteration #  4     ecut=    35.00 Ry     beta= 0.70
     Davidson diagonalization with overlap
     ethr =  1.91E-09,  avg # of iterations =  1.0

     total cpu time spent up to now is       26.3 secs

     total energy              =    -138.13917774 Ry
     estimated scf accuracy    <       0.00000018 Ry

     iteration #  5     ecut=    35.00 Ry     beta= 0.70
     Davidson diagonalization with overlap
     ethr =  1.09E-09,  avg # of iterations =  2.0

     total cpu time spent up to now is       26.8 secs

     total energy              =    -138.13917777 Ry
     estimated scf accuracy    <          3.5E-09 Ry

     iteration #  6     ecut=    35.00 Ry     beta= 0.70
     Davidson diagonalization with overlap
     ethr =  2.20E-11,  avg # of iterations =  2.0

     total cpu time spent up to now is       27.4 secs

     total energy              =    -138.13917777 Ry
     estimated scf accuracy    <          2.3E-11 Ry

     iteration #  7     ecut=    35.00 Ry     beta= 0.70
     Davidson diagonalization with overlap
     ethr =  1.43E-13,  avg # of iterations =  2.1

     total cpu time spent up to now is       28.0 secs

     total energy              =    -138.13917777 Ry
     estimated scf accuracy    <          1.2E-10 Ry

     iteration #  8     ecut=    35.00 Ry     beta= 0.70
     Davidson diagonalization with overlap
     ethr =  1.43E-13,  avg # of iterations =  2.0

     total cpu time spent up to now is       28.6 secs

     total energy              =    -138.13917777 Ry
     estimated scf accuracy    <          1.0E-12 Ry

     iteration #  9     ecut=    35.00 Ry     beta= 0.70
     Davidson diagonalization with overlap
     ethr =  1.00E-13,  avg # of iterations =  1.0

     total cpu time spent up to now is       29.0 secs

     total energy              =    -138.13917777 Ry
     estimated scf accuracy    <          2.1E-13 Ry

     iteration # 10     ecut=    35.00 Ry     beta= 0.70
     Davidson diagonalization with overlap
     ethr =  1.00E-13,  avg # of iterations =  1.0

     total cpu time spent up to now is       29.5 secs

     total energy              =    -138.13917777 Ry
     estimated scf accuracy    <          8.8E-15 Ry

     iteration # 11     ecut=    35.00 Ry     beta= 0.70
     Davidson diagonalization with overlap
     ethr =  1.00E-13,  avg # of iterations =  1.0

     total cpu time spent up to now is       30.0 secs

     total energy              =    -138.13917777 Ry
     estimated scf accuracy    <          1.1E-16 Ry

     iteration # 12     ecut=    35.00 Ry     beta= 0.70
     Davidson diagonalization with overlap
     ethr =  1.00E-13,  avg # of iterations =  1.0

     total cpu time spent up to now is       30.4 secs

     total energy              =    -138.13917777 Ry
     estimated scf accuracy    <          5.7E-17 Ry

     iteration # 13     ecut=    35.00 Ry     beta= 0.70
     Davidson diagonalization with overlap
     ethr =  1.00E-13,  avg # of iterations =  1.0

     total cpu time spent up to now is       30.9 secs

     End of self-consistent calculation

     Number of k-points >= 100: set verbosity='high' to print the bands.

     the Fermi energy is     9.1379 ev

!    total energy              =    -138.13917777 Ry
     estimated scf accuracy    <          9.1E-19 Ry
     smearing contrib. (-TS)   =      -0.00195116 Ry
     internal energy E=F+TS    =    -138.13722661 Ry

     The total energy is F=E-TS. E is the sum of the following terms:
     one-electron contribution =     -88.27768590 Ry
     hartree contribution      =      47.26156649 Ry
     xc contribution           =     -22.96151801 Ry
     ewald contribution        =     -74.15958919 Ry

     convergence has been achieved in  13 iterations

     Forces acting on atoms (cartesian axes, Ry/au):

     atom    1 type  2   force =     0.00000000    0.00000000    0.00000000
     atom    2 type  1   force =     0.00000000    0.00000000    0.00000000
     atom    3 type  1   force =     0.00000000    0.00000000    0.00000000

     Total force =     0.000000     Total SCF correction =     0.000000


     Computing stress (Cartesian axis) and pressure

          total   stress  (Ry/bohr**3)                   (kbar)     P=       -0.21
  -0.00000129  -0.00000000  -0.00000000           -0.19       -0.00       -0.00
  -0.00000000  -0.00000129   0.00000000           -0.00       -0.19        0.00
   0.00000000  -0.00000000  -0.00000164            0.00       -0.00       -0.24


     number of scf cycles    =   4
     number of bfgs steps    =   3

     enthalpy old            =    -138.1391774737 Ry
     enthalpy new            =    -138.1391777664 Ry

     CASE: enthalpy_new < enthalpy_old

     new trust radius        =       0.0002048165 bohr
     new conv_thr            =            1.0E-18 Ry

     new unit-cell volume =    193.51984 a.u.^3 (    28.67668 Ang^3 )
     density =      2.65943 g/cm^3

CELL_PARAMETERS (angstrom)
   1.534285227  -2.657459967  -0.000000000
   1.534285227   2.657459967  -0.000000000
  -0.000000000   0.000000000   3.516625079

ATOMIC_POSITIONS (crystal)
Mg            0.0000000000       -0.0000000000        0.0000000000
B             0.6666670000        0.3333330000        0.5000000000
B             0.3333330000        0.6666670000        0.5000000000



     Writing output data file ./Mg1B2.save/
     NEW-OLD atomic charge density approx. for the potential
     extrapolated charge   15.99811, renormalised to   16.00000

     total cpu time spent up to now is       31.0 secs

     Self-consistent Calculation

     iteration #  1     ecut=    35.00 Ry     beta= 0.70
     Davidson diagonalization with overlap
     ethr =  1.00E-06,  avg # of iterations =  2.0

     Threshold (ethr) on eigenvalues was too large:
     Diagonalizing with lowered threshold

     Davidson diagonalization with overlap
     ethr =  1.94E-09,  avg # of iterations =  1.0

     total cpu time spent up to now is       32.1 secs

     total energy              =    -138.13917720 Ry
     estimated scf accuracy    <       0.00000031 Ry

     iteration #  2     ecut=    35.00 Ry     beta= 0.70
     Davidson diagonalization with overlap
     ethr =  1.92E-09,  avg # of iterations =  2.1

     total cpu time spent up to now is       32.7 secs

     total energy              =    -138.13917779 Ry
     estimated scf accuracy    <       0.00000040 Ry

     iteration #  3     ecut=    35.00 Ry     beta= 0.70
     Davidson diagonalization with overlap
     ethr =  1.92E-09,  avg # of iterations =  1.1

     total cpu time spent up to now is       33.1 secs

     total energy              =    -138.13917780 Ry
     estimated scf accuracy    <       0.00000007 Ry

     iteration #  4     ecut=    35.00 Ry     beta= 0.70
     Davidson diagonalization with overlap
     ethr =  4.54E-10,  avg # of iterations =  1.0

     total cpu time spent up to now is       33.6 secs

     total energy              =    -138.13917778 Ry
     estimated scf accuracy    <       0.00000004 Ry

     iteration #  5     ecut=    35.00 Ry     beta= 0.70
     Davidson diagonalization with overlap
     ethr =  2.34E-10,  avg # of iterations =  2.0

     total cpu time spent up to now is       34.1 secs

     total energy              =    -138.13917779 Ry
     estimated scf accuracy    <          1.7E-09 Ry

     iteration #  6     ecut=    35.00 Ry     beta= 0.70
     Davidson diagonalization with overlap
     ethr =  1.04E-11,  avg # of iterations =  2.0

     total cpu time spent up to now is       34.7 secs

     total energy              =    -138.13917779 Ry
     estimated scf accuracy    <          1.1E-11 Ry

     iteration #  7     ecut=    35.00 Ry     beta= 0.70
     Davidson diagonalization with overlap
     ethr =  1.00E-13,  avg # of iterations =  2.1

     total cpu time spent up to now is       35.2 secs

     total energy              =    -138.13917779 Ry
     estimated scf accuracy    <          3.4E-11 Ry

     iteration #  8     ecut=    35.00 Ry     beta= 0.70
     Davidson diagonalization with overlap
     ethr =  1.00E-13,  avg # of iterations =  2.0

     total cpu time spent up to now is       35.8 secs

     total energy              =    -138.13917779 Ry
     estimated scf accuracy    <          2.4E-12 Ry

     iteration #  9     ecut=    35.00 Ry     beta= 0.70
     Davidson diagonalization with overlap
     ethr =  1.00E-13,  avg # of iterations =  1.0

     total cpu time spent up to now is       36.2 secs

     total energy              =    -138.13917779 Ry
     estimated scf accuracy    <          1.5E-13 Ry

     iteration # 10     ecut=    35.00 Ry     beta= 0.70
     Davidson diagonalization with overlap
     ethr =  1.00E-13,  avg # of iterations =  1.0

     total cpu time spent up to now is       36.7 secs

     total energy              =    -138.13917779 Ry
     estimated scf accuracy    <          2.1E-14 Ry

     iteration # 11     ecut=    35.00 Ry     beta= 0.70
     Davidson diagonalization with overlap
     ethr =  1.00E-13,  avg # of iterations =  1.0

     total cpu time spent up to now is       37.1 secs

     total energy              =    -138.13917779 Ry
     estimated scf accuracy    <          3.1E-17 Ry

     iteration # 12     ecut=    35.00 Ry     beta= 0.70
     Davidson diagonalization with overlap
     ethr =  1.00E-13,  avg # of iterations =  1.0

     total cpu time spent up to now is       37.6 secs

     total energy              =    -138.13917779 Ry
     estimated scf accuracy    <          2.2E-17 Ry

     iteration # 13     ecut=    35.00 Ry     beta= 0.70
     Davidson diagonalization with overlap
     ethr =  1.00E-13,  avg # of iterations =  1.0

     total cpu time spent up to now is       38.0 secs

     total energy              =    -138.13917779 Ry
     estimated scf accuracy    <          2.6E-17 Ry

     iteration # 14     ecut=    35.00 Ry     beta= 0.70
     Davidson diagonalization with overlap
     ethr =  1.00E-13,  avg # of iterations =  1.0

     total cpu time spent up to now is       38.5 secs

     total energy              =    -138.13917779 Ry
     estimated scf accuracy    <          1.5E-16 Ry

     iteration # 15     ecut=    35.00 Ry     beta= 0.70
     Davidson diagonalization with overlap
     ethr =  1.00E-13,  avg # of iterations =  1.0

     total cpu time spent up to now is       38.9 secs

     total energy              =    -138.13917779 Ry
     estimated scf accuracy    <          2.3E-16 Ry

     iteration # 16     ecut=    35.00 Ry     beta= 0.70
     Davidson diagonalization with overlap
     ethr =  1.00E-13,  avg # of iterations =  1.0

     total cpu time spent up to now is       39.4 secs

     total energy              =    -138.13917779 Ry
     estimated scf accuracy    <          9.7E-17 Ry

     iteration # 17     ecut=    35.00 Ry     beta= 0.70
     Davidson diagonalization with overlap
     ethr =  1.00E-13,  avg # of iterations =  1.0

     total cpu time spent up to now is       39.9 secs

     total energy              =    -138.13917779 Ry
     estimated scf accuracy    <          4.3E-18 Ry

     iteration # 18     ecut=    35.00 Ry     beta= 0.70
     Davidson diagonalization with overlap
     ethr =  1.00E-13,  avg # of iterations =  1.0

     total cpu time spent up to now is       40.3 secs

     End of self-consistent calculation

     Number of k-points >= 100: set verbosity='high' to print the bands.

     the Fermi energy is     9.1392 ev

!    total energy              =    -138.13917779 Ry
     estimated scf accuracy    <          2.1E-19 Ry
     smearing contrib. (-TS)   =      -0.00195123 Ry
     internal energy E=F+TS    =    -138.13722656 Ry

     The total energy is F=E-TS. E is the sum of the following terms:
     one-electron contribution =     -88.27317752 Ry
     hartree contribution      =      47.26024336 Ry
     xc contribution           =     -22.96169898 Ry
     ewald contribution        =     -74.16259341 Ry

     convergence has been achieved in  18 iterations

     Forces acting on atoms (cartesian axes, Ry/au):

     atom    1 type  2   force =     0.00000000   -0.00000000    0.00000000
     atom    2 type  1   force =    -0.00000000    0.00000000   -0.00000000
     atom    3 type  1   force =     0.00000000   -0.00000000    0.00000000

     Total force =     0.000000     Total SCF correction =     0.000000


     Computing stress (Cartesian axis) and pressure

          total   stress  (Ry/bohr**3)                   (kbar)     P=       -0.03
  -0.00000025   0.00000000  -0.00000000           -0.04        0.00       -0.00
   0.00000000  -0.00000025   0.00000000            0.00       -0.04        0.00
  -0.00000000   0.00000000  -0.00000006           -0.00        0.00       -0.01


     bfgs converged in   5 scf cycles and   4 bfgs steps
     (criteria: energy <  1.0E-05 Ry, force <  1.0E-04Ry/Bohr, cell <  5.0E-02kbar)

     End of BFGS Geometry Optimization

     Final enthalpy =    -138.1391777854 Ry

     File ./Mg1B2.bfgs deleted, as requested
Begin final coordinates
     new unit-cell volume =    193.51984 a.u.^3 (    28.67668 Ang^3 )
     density =      2.65943 g/cm^3

CELL_PARAMETERS (angstrom)
   1.534285227  -2.657459967  -0.000000000
   1.534285227   2.657459967  -0.000000000
  -0.000000000   0.000000000   3.516625079

ATOMIC_POSITIONS (crystal)
Mg            0.0000000000       -0.0000000000       -0.0000000000
B             0.6666670000        0.3333330000        0.5000000000
B             0.3333330000        0.6666670000        0.5000000000
End final coordinates



     Writing output data file ./Mg1B2.save/

     Final scf calculation at the relaxed structure.
     The G-vectors are recalculated for the final unit cell
     Results may differ from those at the preceding step.
 
     Parallelization info
     --------------------
     sticks:   dense  smooth     PW     G-vecs:    dense   smooth      PW
     Min          27      13      4                  639      225      41
     Max          28      14      5                  644      232      43
     Sum         649     313    109                15347     5449    1011
 


     bravais-lattice index     =            0
     lattice parameter (alat)  =       5.7878  a.u.
     unit-cell volume          =     193.5198 (a.u.)^3
     number of atoms/cell      =            3
     number of atomic types    =            2
     number of electrons       =        16.00
     number of Kohn-Sham states=           12
     kinetic-energy cutoff     =      35.0000  Ry
     charge density cutoff     =     280.0000  Ry
     convergence threshold     =      1.0E-18
     mixing beta               =       0.7000
     number of iterations used =            8  plain     mixing
     Exchange-correlation=  SLA  PW   PBX  PBC
                           (   1   4   3   4   0   0   0)

     celldm(1)=   5.787782  celldm(2)=   0.000000  celldm(3)=   0.000000
     celldm(4)=   0.000000  celldm(5)=   0.000000  celldm(6)=   0.000000

     crystal axes: (cart. coord. in units of alat)
               a(1) = (   0.500948  -0.867668  -0.000000 )  
               a(2) = (   0.500948   0.867668  -0.000000 )  
               a(3) = (  -0.000000   0.000000   1.148187 )  

     reciprocal axes: (cart. coord. in units 2 pi/alat)
               b(1) = (  0.998107 -0.576257  0.000000 )  
               b(2) = (  0.998107  0.576257  0.000000 )  
               b(3) = (  0.000000 -0.000000  0.870938 )  


     PseudoPot. # 1 for B  read from file:
     ../../pp/B.upf
     MD5 check sum: cc6de2960df11db49a60e589f9ebb39b
     Pseudo is Ultrasoft + core correction, Zval =  3.0
     Generated by new atomic code, or converted to UPF format
     Using radial grid of  781 points,  4 beta functions with: 
                l(1) =   0
                l(2) =   0
                l(3) =   1
                l(4) =   1
     Q(r) pseudized with  8 coefficients,  rinner =    1.100   1.100   1.100


     PseudoPot. # 2 for Mg read from file:
     ../../pp/Mg.upf
     MD5 check sum: 8ffbd8f729fef71095aac5bd8316fb1f
     Pseudo is Ultrasoft, Zval = 10.0
     Generated by new atomic code, or converted to UPF format
     Using radial grid of  821 points,  7 beta functions with: 
                l(1) =   0
                l(2) =   0
                l(3) =   0
                l(4) =   1
                l(5) =   1
                l(6) =   2
                l(7) =   2
     Q(r) pseudized with  8 coefficients,  rinner =    1.200   1.200   1.200
                                                       1.200   1.200

     atomic species   valence    mass     pseudopotential
        B              3.00    10.81100     B ( 1.00)
        Mg            10.00    24.30500     Mg( 1.00)

     24 Sym. Ops., with inversion, found



   Cartesian axes

     site n.     atom                  positions (alat units)
         1           Mg  tau(   1) = (   0.0000000  -0.0000000  -0.0000000  )
         2           B   tau(   2) = (   0.5009482  -0.2892232   0.5740937  )
         3           B   tau(   3) = (   0.5009482   0.2892232   0.5740937  )

     number of k points=   162  Gaussian smearing, width (Ry)=  0.0200

     Number of k-points >= 100: set verbosity='high' to print them.

     Dense  grid:    15347 G-vectors     FFT dimensions: (  32,  32,  36)

     Smooth grid:     5449 G-vectors     FFT dimensions: (  24,  24,  25)

     Estimated max dynamical RAM per process >      10.60 MB

     Estimated total dynamical RAM >     254.42 MB

     Initial potential from superposition of free atoms

     starting charge   15.69921, renormalised to   16.00000
     Starting wfcs are   13 randomized atomic wfcs

     total cpu time spent up to now is       40.7 secs

     Self-consistent Calculation

     iteration #  1     ecut=    35.00 Ry     beta= 0.70
     Davidson diagonalization with overlap
     c_bands:  1 eigenvalues not converged
     c_bands:  1 eigenvalues not converged
     c_bands:  1 eigenvalues not converged
     c_bands:  1 eigenvalues not converged
     c_bands:  1 eigenvalues not converged
     c_bands:  1 eigenvalues not converged
     ethr =  1.00E-06,  avg # of iterations = 12.8

     total cpu time spent up to now is       42.5 secs

     total energy              =    -138.00593172 Ry
     estimated scf accuracy    <       0.43634720 Ry

     iteration #  2     ecut=    35.00 Ry     beta= 0.70
     Davidson diagonalization with overlap
     ethr =  2.73E-03,  avg # of iterations =  2.1

     total cpu time spent up to now is       43.1 secs

     total energy              =    -138.12385127 Ry
     estimated scf accuracy    <       0.07855192 Ry

     iteration #  3     ecut=    35.00 Ry     beta= 0.70
     Davidson diagonalization with overlap
     ethr =  4.91E-04,  avg # of iterations =  2.0

     total cpu time spent up to now is       43.6 secs

     total energy              =    -138.13911988 Ry
     estimated scf accuracy    <       0.00076645 Ry

     iteration #  4     ecut=    35.00 Ry     beta= 0.70
     Davidson diagonalization with overlap
     ethr =  4.79E-06,  avg # of iterations =  3.7

     total cpu time spent up to now is       44.3 secs

     total energy              =    -138.13920647 Ry
     estimated scf accuracy    <       0.00002784 Ry

     iteration #  5     ecut=    35.00 Ry     beta= 0.70
     Davidson diagonalization with overlap
     ethr =  1.74E-07,  avg # of iterations =  1.7

     total cpu time spent up to now is       44.8 secs

     total energy              =    -138.13920817 Ry
     estimated scf accuracy    <       0.00000091 Ry

     iteration #  6     ecut=    35.00 Ry     beta= 0.70
     Davidson diagonalization with overlap
     ethr =  5.71E-09,  avg # of iterations =  2.0

     total cpu time spent up to now is       45.3 secs

     total energy              =    -138.13920845 Ry
     estimated scf accuracy    <       0.00000002 Ry

     iteration #  7     ecut=    35.00 Ry     beta= 0.70
     Davidson diagonalization with overlap
     ethr =  1.29E-10,  avg # of iterations =  2.1

     total cpu time spent up to now is       45.9 secs

     total energy              =    -138.13920846 Ry
     estimated scf accuracy    <          2.7E-10 Ry

     iteration #  8     ecut=    35.00 Ry     beta= 0.70
     Davidson diagonalization with overlap
     ethr =  1.70E-12,  avg # of iterations =  2.8

     total cpu time spent up to now is       46.5 secs

     total energy              =    -138.13920846 Ry
     estimated scf accuracy    <          5.3E-12 Ry

     iteration #  9     ecut=    35.00 Ry     beta= 0.70
     Davidson diagonalization with overlap
     ethr =  1.00E-13,  avg # of iterations =  2.0

     total cpu time spent up to now is       47.1 secs

     total energy              =    -138.13920846 Ry
     estimated scf accuracy    <          1.3E-12 Ry

     iteration # 10     ecut=    35.00 Ry     beta= 0.70
     Davidson diagonalization with overlap
     ethr =  1.00E-13,  avg # of iterations =  1.0

     total cpu time spent up to now is       47.5 secs

     total energy              =    -138.13920846 Ry
     estimated scf accuracy    <          3.5E-15 Ry

     iteration # 11     ecut=    35.00 Ry     beta= 0.70
     Davidson diagonalization with overlap
     ethr =  1.00E-13,  avg # of iterations =  1.0

     total cpu time spent up to now is       48.0 secs

     total energy              =    -138.13920846 Ry
     estimated scf accuracy    <          1.4E-16 Ry

     iteration # 12     ecut=    35.00 Ry     beta= 0.70
     Davidson diagonalization with overlap
     ethr =  1.00E-13,  avg # of iterations =  1.0

     total cpu time spent up to now is       48.5 secs

     total energy              =    -138.13920846 Ry
     estimated scf accuracy    <          1.6E-16 Ry

     iteration # 13     ecut=    35.00 Ry     beta= 0.70
     Davidson diagonalization with overlap
     ethr =  1.00E-13,  avg # of iterations =  1.0

     total cpu time spent up to now is       48.9 secs

     total energy              =    -138.13920846 Ry
     estimated scf accuracy    <          1.1E-17 Ry

     iteration # 14     ecut=    35.00 Ry     beta= 0.70
     Davidson diagonalization with overlap
     ethr =  1.00E-13,  avg # of iterations =  1.0

     total cpu time spent up to now is       49.4 secs

     End of self-consistent calculation

     Number of k-points >= 100: set verbosity='high' to print the bands.

     the Fermi energy is     9.1392 ev

!    total energy              =    -138.13920846 Ry
     estimated scf accuracy    <          8.4E-19 Ry
     smearing contrib. (-TS)   =      -0.00195119 Ry
     internal energy E=F+TS    =    -138.13725726 Ry

     The total energy is F=E-TS. E is the sum of the following terms:
     one-electron contribution =     -88.27339862 Ry
     hartree contribution      =      47.26049357 Ry
     xc contribution           =     -22.96175880 Ry
     ewald contribution        =     -74.16259341 Ry

     convergence has been achieved in  14 iterations

     Forces acting on atoms (cartesian axes, Ry/au):

     atom    1 type  2   force =     0.00000000   -0.00000000    0.00000000
     atom    2 type  1   force =     0.00000000   -0.00000000    0.00000000
     atom    3 type  1   force =     0.00000000   -0.00000000    0.00000000

     Total force =     0.000000     Total SCF correction =     0.000000


     Computing stress (Cartesian axis) and pressure

          total   stress  (Ry/bohr**3)                   (kbar)     P=        0.27
   0.00000282   0.00000000   0.00000000            0.42        0.00        0.00
   0.00000000   0.00000282  -0.00000000            0.00        0.42       -0.00
   0.00000000  -0.00000000  -0.00000006            0.00       -0.00       -0.01


     Writing output data file ./Mg1B2.save/
 
     init_run     :      0.47s CPU      0.55s WALL (       2 calls)
     electrons    :     44.60s CPU     47.85s WALL (       6 calls)
     update_pot   :      0.08s CPU      0.10s WALL (       4 calls)
     forces       :      0.28s CPU      0.29s WALL (       6 calls)
     stress       :      0.53s CPU      0.54s WALL (       6 calls)

     Called by init_run:
     wfcinit      :      0.35s CPU      0.39s WALL (       2 calls)
     potinit      :      0.01s CPU      0.02s WALL (       2 calls)
     hinit0       :      0.10s CPU      0.13s WALL (       2 calls)

     Called by electrons:
     c_bands      :     37.73s CPU     40.39s WALL (      90 calls)
     sum_band     :      6.55s CPU      7.11s WALL (      90 calls)
     v_of_rho     :      0.11s CPU      0.11s WALL (      93 calls)
     newd         :      0.16s CPU      0.17s WALL (      93 calls)
     mix_rho      :      0.04s CPU      0.04s WALL (      90 calls)

     Called by c_bands:
     init_us_2    :      0.37s CPU      0.40s WALL (   31428 calls)
     cegterg      :     36.38s CPU     38.95s WALL (   14580 calls)

     Called by *egterg:
     cdiaghg      :      6.18s CPU      6.57s WALL (   38975 calls)
     h_psi        :     27.26s CPU     29.25s WALL (   40433 calls)
     s_psi        :      0.27s CPU      0.29s WALL (   40433 calls)
     g_psi        :      0.04s CPU      0.04s WALL (   25529 calls)

     Called by h_psi:
     h_psi:calbec :      1.14s CPU      1.23s WALL (   40433 calls)
     vloc_psi     :     25.62s CPU     27.49s WALL (   40433 calls)
     add_vuspsi   :      0.31s CPU      0.34s WALL (   40433 calls)

     General routines
     calbec       :      1.59s CPU      1.71s WALL (   59873 calls)
     fft          :      0.13s CPU      0.15s WALL (    1354 calls)
     ffts         :      0.01s CPU      0.01s WALL (     183 calls)
     fftw         :     29.51s CPU     31.76s WALL (  987874 calls)
     interpolate  :      0.01s CPU      0.01s WALL (      93 calls)
 
     Parallel routines
     fft_scatt_xy :      1.88s CPU      1.99s WALL (  989411 calls)
     fft_scatt_yz :     14.91s CPU     16.05s WALL (  989411 calls)
 
     PWSCF        :     46.34s CPU     50.14s WALL

 
   This run was terminated on:   0: 1: 0   2Apr2024            

=------------------------------------------------------------------------------=
   JOB DONE.
=------------------------------------------------------------------------------=
