unknown system                          
   1.00000000000000     
     1.535534   -2.659623    0.000000
     1.535534    2.659623    0.000000
     0.000000    0.000000    3.529122
   Mg   B 
     1     2
Direct
  0.000000  0.000000  0.000000
  0.666667  0.333333  0.500000
  0.333333  0.666667  0.500000
 
   56   56   56
 0.90271     0.90288     0.90401     0.90795     0.91736     0.93530     0.96475      1.0083      1.0681      1.1455    
  1.2414      1.3561      1.4890      1.6385      1.8015      1.9734      2.1483      2.3193      2.4797      2.6234    
  2.7463      2.8468      2.9259      2.9859      3.0298      3.0606      3.0806      3.0920      3.0956      3.0920    
  3.0806      3.0606      3.0298      2.9859      2.9259      2.8468      2.7463      2.6234      2.4797      2.3193    
  2.1483      1.9734      1.8015      1.6385      1.4890      1.3561      1.2414      1.1455      1.0681      1.0083    
 0.96475     0.93530     0.91736     0.90795     0.90401     0.90288     0.90288     0.90288     0.90353     0.90608    
 0.91280     0.92657     0.95042     0.98714      1.0390      1.1079      1.1948      1.3004      1.4246      1.5662    
  1.7229      1.8910      2.0650      2.2384      2.4045      2.5567      2.6899      2.8011      2.8902      2.9591    
  3.0104      3.0472      3.0723      3.0877      3.0951      3.0951      3.0877      3.0723      3.0472      3.0104    
  2.9591      2.8902      2.8011      2.6899      2.5567      2.4045      2.2384      2.0650      1.8910      1.7229    
  1.5662      1.4246      1.3004      1.1948      1.1079      1.0390     0.98714     0.95042     0.92657     0.91280    
 0.90608     0.90353     0.90401     0.90353     0.90401     0.90608     0.91145     0.92265     0.94255     0.97399    
  1.0195      1.0809      1.1598      1.2570      1.3727      1.5063      1.6560      1.8189      1.9901      2.1639    
  2.3333      2.4918      2.6334      2.7542      2.8529      2.9304      2.9893      3.0324      3.0625      3.0823    
  3.0935      3.0971      3.0935      3.0823      3.0625      3.0324      2.9893      2.9304      2.8529      2.7542    
  2.6334      2.4918      2.3333      2.1639      1.9901      1.8189      1.6560      1.5063      1.3727      1.2570    
  1.1598      1.0809      1.0195     0.97399     0.94255     0.92265     0.91145     0.90608     0.90795     0.90608    
 0.90608     0.90795     0.91280     0.92265     0.94006     0.96773      1.0082      1.0636      1.1355      1.2251    
  1.3329      1.4587      1.6012      1.7580      1.9252      2.0973      2.2680      2.4305      2.5786      2.7076    
  2.8148      2.9006      2.9668      3.0162      3.0516      3.0758      3.0908      3.0980      3.0980      3.0908    
  3.0758      3.0516      3.0162      2.9668      2.9006      2.8148      2.7076      2.5786      2.4305      2.2680    
  2.0973      1.9252      1.7580      1.6012      1.4587      1.3329      1.2251      1.1355      1.0636      1.0082    
 0.96773     0.94006     0.92265     0.91280     0.91736     0.91280     0.91145     0.91280     0.91736     0.92657    
 0.94255     0.96773      1.0045      1.0551      1.1213      1.2043      1.3049      1.4232      1.5585      1.7089    
  1.8709      2.0400      2.2101      2.3746      2.5273      2.6626      2.7772      2.8704      2.9435      2.9990    
  3.0397      3.0683      3.0872      3.0979      3.1013      3.0979      3.0872      3.0683      3.0397      2.9990    
  2.9435      2.8704      2.7772      2.6626      2.5273      2.3746      2.2101      2.0400      1.8709      1.7089    
  1.5585      1.4232      1.3049      1.2043      1.1213      1.0551      1.0045     0.96773     0.94255     0.92657    
 0.93530     0.92657     0.92265     0.92265     0.92657     0.93530     0.95042     0.97399      1.0082      1.0551    
  1.1166      1.1940      1.2883      1.3998      1.5281      1.6718      1.8282      1.9931      2.1610      2.3257    
  2.4809      2.6208      2.7413      2.8409      2.9202      2.9813      3.0270      3.0599      3.0826      3.0968    
  3.1036      3.1036      3.0968      3.0826      3.0599      3.0270      2.9813      2.9202      2.8409      2.7413    
  2.6208      2.4809      2.3257      2.1610      1.9931      1.8282      1.6718      1.5281      1.3998      1.2883    
  1.1940      1.1166      1.0551      1.0082     0.97399     0.95042     0.96475     0.95042     0.94255     0.94006    
 0.94255     0.95042     0.96475     0.98714      1.0195      1.0636      1.1213      1.1940      1.2827      1.3881    
  1.5099      1.6471      1.7974      1.9573      2.1218      2.2851      2.4409      2.5835      2.7083      2.8130    
  2.8975      2.9637      3.0139      3.0509      3.0772      3.0947      3.1047      3.1079      3.1047      3.0947    
  3.0772      3.0509      3.0139      2.9637      2.8975      2.8130      2.7083      2.5835      2.4409      2.2851    
  2.1218      1.9573      1.7974      1.6471      1.5099      1.3881      1.2827      1.1940      1.1213      1.0636    
  1.0195     0.98714      1.0083     0.98714     0.97399     0.96773     0.96773     0.97399     0.98714      1.0083    
  1.0390      1.0809      1.1355      1.2043      1.2883      1.3881      1.5038      1.6347      1.7788      1.9331    
  2.0932      2.2536      2.4085      2.5520      2.6795      2.7878      2.8765      2.9468      3.0009      3.0415    
  3.0711      3.0917      3.1047      3.1110      3.1110      3.1047      3.0917      3.0711      3.0415      3.0009    
  2.9468      2.8765      2.7878      2.6795      2.5520      2.4085      2.2536      2.0932      1.9331      1.7788    
  1.6347      1.5038      1.3881      1.2883      1.2043      1.1355      1.0809      1.0390      1.0681      1.0390    
  1.0195      1.0082      1.0045      1.0082      1.0195      1.0390      1.0681      1.1079      1.1598      1.2251    
  1.3049      1.3998      1.5099      1.6347      1.7726      1.9209      2.0758      2.2323      2.3847      2.5274    
  2.6558      2.7662      2.8578      2.9312      2.9886      3.0322      3.0646      3.0880      3.1037      3.1129    
  3.1159      3.1129      3.1037      3.0880      3.0646      3.0322      2.9886      2.9312      2.8578      2.7662    
  2.6558      2.5274      2.3847      2.2323      2.0758      1.9209      1.7726      1.6347      1.5099      1.3998    
  1.3049      1.2251      1.1598      1.1079      1.1455      1.1079      1.0809      1.0636      1.0551      1.0551    
  1.0636      1.0809      1.1079      1.1455      1.1948      1.2570      1.3329      1.4232      1.5281      1.6471    
  1.7788      1.9209      2.0700      2.2214      2.3701      2.5106      2.6382      2.7492      2.8423      2.9178    
  2.9774      3.0233      3.0580      3.0837      3.1018      3.1135      3.1192      3.1192      3.1135      3.1018    
  3.0837      3.0580      3.0233      2.9774      2.9178      2.8423      2.7492      2.6382      2.5106      2.3701    
  2.2214      2.0700      1.9209      1.7788      1.6471      1.5281      1.4232      1.3329      1.2570      1.1948    
  1.2414      1.1948      1.1598      1.1355      1.1213      1.1166      1.1213      1.1355      1.1598      1.1948    
  1.2414      1.3004      1.3727      1.4587      1.5585      1.6718      1.7974      1.9331      2.0758      2.2214    
  2.3652      2.5020      2.6273      2.7375      2.8307      2.9071      2.9679      3.0154      3.0518      3.0791    
  3.0992      3.1130      3.1212      3.1239      3.1212      3.1130      3.0992      3.0791      3.0518      3.0154    
  2.9679      2.9071      2.8307      2.7375      2.6273      2.5020      2.3652      2.2214      2.0758      1.9331    
  1.7974      1.6718      1.5585      1.4587      1.3727      1.3004      1.3561      1.3004      1.2570      1.2251    
  1.2043      1.1940      1.1940      1.2043      1.2251      1.2570      1.3004      1.3561      1.4246      1.5063    
  1.6012      1.7089      1.8282      1.9573      2.0932      2.2323      2.3701      2.5020      2.6237      2.7315    
  2.8235      2.8996      2.9608      3.0089      3.0462      3.0748      3.0962      3.1118      3.1219      3.1270    
  3.1270      3.1219      3.1118      3.0962      3.0748      3.0462      3.0089      2.9608      2.8996      2.8235    
  2.7315      2.6237      2.5020      2.3701      2.2323      2.0932      1.9573      1.8282      1.7089      1.6012    
  1.5063      1.4246      1.4890      1.4246      1.3727      1.3329      1.3049      1.2883      1.2827      1.2883    
  1.3049      1.3329      1.3727      1.4246      1.4890      1.5662      1.6560      1.7580      1.8709      1.9931    
  2.1218      2.2536      2.3847      2.5106      2.6273      2.7315      2.8211      2.8957      2.9563      3.0043    
  3.0419      3.0710      3.0933      3.1100      3.1217      3.1287      3.1311      3.1287      3.1217      3.1100    
  3.0933      3.0710      3.0419      3.0043      2.9563      2.8957      2.8211      2.7315      2.6273      2.5106    
  2.3847      2.2536      2.1218      1.9931      1.8709      1.7580      1.6560      1.5662      1.6385      1.5662    
  1.5063      1.4587      1.4232      1.3998      1.3881      1.3881      1.3998      1.4232      1.4587      1.5063    
  1.5662      1.6385      1.7229      1.8189      1.9252      2.0400      2.1610      2.2851      2.4085      2.5274    
  2.6382      2.7375      2.8235      2.8957      2.9548      3.0019      3.0391      3.0682      3.0908      3.1081    
  3.1209      3.1294      3.1337      3.1337      3.1294      3.1209      3.1081      3.0908      3.0682      3.0391    
  3.0019      2.9548      2.8957      2.8235      2.7375      2.6382      2.5274      2.4085      2.2851      2.1610    
  2.0400      1.9252      1.8189      1.7229      1.8015      1.7229      1.6560      1.6012      1.5585      1.5281    
  1.5099      1.5038      1.5099      1.5281      1.5585      1.6012      1.6560      1.7229      1.8015      1.8910    
  1.9901      2.0973      2.2101      2.3257      2.4409      2.5520      2.6558      2.7492      2.8307      2.8996    
  2.9563      3.0019      3.0381      3.0667      3.0891      3.1066      3.1199      3.1295      3.1353      3.1372    
  3.1353      3.1295      3.1199      3.1066      3.0891      3.0667      3.0381      3.0019      2.9563      2.8996    
  2.8307      2.7492      2.6558      2.5520      2.4409      2.3257      2.2101      2.0973      1.9901      1.8910    
  1.9734      1.8910      1.8189      1.7580      1.7089      1.6718      1.6471      1.6347      1.6347      1.6471    
  1.6718      1.7089      1.7580      1.8189      1.8910      1.9734      2.0650      2.1639      2.2680      2.3746    
  2.4809      2.5835      2.6795      2.7662      2.8423      2.9071      2.9608      3.0043      3.0391      3.0667    
  3.0885      3.1057      3.1192      3.1293      3.1360      3.1395      3.1395      3.1360      3.1293      3.1192    
  3.1057      3.0885      3.0667      3.0391      3.0043      2.9608      2.9071      2.8423      2.7662      2.6795    
  2.5835      2.4809      2.3746      2.2680      2.1639      2.0650      2.1483      2.0650      1.9901      1.9252    
  1.8709      1.8282      1.7974      1.7788      1.7726      1.7788      1.7974      1.8282      1.8709      1.9252    
  1.9901      2.0650      2.1483      2.2384      2.3333      2.4305      2.5273      2.6208      2.7083      2.7878    
  2.8578      2.9178      2.9679      3.0089      3.0419      3.0682      3.0891      3.1057      3.1189      3.1291    
  3.1363      3.1408      3.1423      3.1408      3.1363      3.1291      3.1189      3.1057      3.0891      3.0682    
  3.0419      3.0089      2.9679      2.9178      2.8578      2.7878      2.7083      2.6208      2.5273      2.4305    
  2.3333      2.2384      2.3193      2.2384      2.1639      2.0973      2.0400      1.9931      1.9573      1.9331    
  1.9209      1.9209      1.9331      1.9573      1.9931      2.0400      2.0973      2.1639      2.2384      2.3193    
  2.4045      2.4918      2.5786      2.6626      2.7413      2.8130      2.8765      2.9312      2.9774      3.0154    
  3.0462      3.0710      3.0908      3.1066      3.1192      3.1291      3.1364      3.1414      3.1438      3.1438    
  3.1414      3.1364      3.1291      3.1192      3.1066      3.0908      3.0710      3.0462      3.0154      2.9774    
  2.9312      2.8765      2.8130      2.7413      2.6626      2.5786      2.4918      2.4045      2.4797      2.4045    
  2.3333      2.2680      2.2101      2.1610      2.1218      2.0932      2.0758      2.0700      2.0758      2.0932    
  2.1218      2.1610      2.2101      2.2680      2.3333      2.4045      2.4797      2.5567      2.6334      2.7076    
  2.7772      2.8409      2.8975      2.9468      2.9886      3.0233      3.0518      3.0748      3.0933      3.1081    
  3.1199      3.1293      3.1363      3.1414      3.1444      3.1454      3.1444      3.1414      3.1363      3.1293    
  3.1199      3.1081      3.0933      3.0748      3.0518      3.0233      2.9886      2.9468      2.8975      2.8409    
  2.7772      2.7076      2.6334      2.5567      2.6234      2.5567      2.4918      2.4305      2.3746      2.3257    
  2.2851      2.2536      2.2323      2.2214      2.2214      2.2323      2.2536      2.2851      2.3257      2.3746    
  2.4305      2.4918      2.5567      2.6234      2.6899      2.7542      2.8148      2.8704      2.9202      2.9637    
  3.0009      3.0322      3.0580      3.0791      3.0962      3.1100      3.1209      3.1295      3.1360      3.1408    
  3.1438      3.1454      3.1454      3.1438      3.1408      3.1360      3.1295      3.1209      3.1100      3.0962    
  3.0791      3.0580      3.0322      3.0009      2.9637      2.9202      2.8704      2.8148      2.7542      2.6899    
  2.7463      2.6899      2.6334      2.5786      2.5273      2.4809      2.4409      2.4085      2.3847      2.3701    
  2.3652      2.3701      2.3847      2.4085      2.4409      2.4809      2.5273      2.5786      2.6334      2.6899    
  2.7463      2.8011      2.8529      2.9006      2.9435      2.9813      3.0139      3.0415      3.0646      3.0837    
  3.0992      3.1118      3.1217      3.1294      3.1353      3.1395      3.1423      3.1438      3.1444      3.1438    
  3.1423      3.1395      3.1353      3.1294      3.1217      3.1118      3.0992      3.0837      3.0646      3.0415    
  3.0139      2.9813      2.9435      2.9006      2.8529      2.8011      2.8468      2.8011      2.7542      2.7076    
  2.6626      2.6208      2.5835      2.5520      2.5274      2.5106      2.5020      2.5020      2.5106      2.5274    
  2.5520      2.5835      2.6208      2.6626      2.7076      2.7542      2.8011      2.8468      2.8902      2.9304    
  2.9668      2.9990      3.0270      3.0509      3.0711      3.0880      3.1018      3.1130      3.1219      3.1287    
  3.1337      3.1372      3.1395      3.1408      3.1414      3.1414      3.1408      3.1395      3.1372      3.1337    
  3.1287      3.1219      3.1130      3.1018      3.0880      3.0711      3.0509      3.0270      2.9990      2.9668    
  2.9304      2.8902      2.9259      2.8902      2.8529      2.8148      2.7772      2.7413      2.7083      2.6795    
  2.6558      2.6382      2.6273      2.6237      2.6273      2.6382      2.6558      2.6795      2.7083      2.7413    
  2.7772      2.8148      2.8529      2.8902      2.9259      2.9591      2.9893      3.0162      3.0397      3.0599    
  3.0772      3.0917      3.1037      3.1135      3.1212      3.1270      3.1311      3.1337      3.1353      3.1360    
  3.1363      3.1364      3.1363      3.1360      3.1353      3.1337      3.1311      3.1270      3.1212      3.1135    
  3.1037      3.0917      3.0772      3.0599      3.0397      3.0162      2.9893      2.9591      2.9859      2.9591    
  2.9304      2.9006      2.8704      2.8409      2.8130      2.7878      2.7662      2.7492      2.7375      2.7315    
  2.7315      2.7375      2.7492      2.7662      2.7878      2.8130      2.8409      2.8704      2.9006      2.9304    
  2.9591      2.9859      3.0104      3.0324      3.0516      3.0683      3.0826      3.0947      3.1047      3.1129    
  3.1192      3.1239      3.1270      3.1287      3.1294      3.1295      3.1293      3.1291      3.1291      3.1293    
  3.1295      3.1294      3.1287      3.1270      3.1239      3.1192      3.1129      3.1047      3.0947      3.0826    
  3.0683      3.0516      3.0324      3.0104      3.0298      3.0104      2.9893      2.9668      2.9435      2.9202    
  2.8975      2.8765      2.8578      2.8423      2.8307      2.8235      2.8211      2.8235      2.8307      2.8423    
  2.8578      2.8765      2.8975      2.9202      2.9435      2.9668      2.9893      3.0104      3.0298      3.0472    
  3.0625      3.0758      3.0872      3.0968      3.1047      3.1110      3.1159      3.1192      3.1212      3.1219    
  3.1217      3.1209      3.1199      3.1192      3.1189      3.1192      3.1199      3.1209      3.1217      3.1219    
  3.1212      3.1192      3.1159      3.1110      3.1047      3.0968      3.0872      3.0758      3.0625      3.0472    
  3.0606      3.0472      3.0324      3.0162      2.9990      2.9813      2.9637      2.9468      2.9312      2.9178    
  2.9071      2.8996      2.8957      2.8957      2.8996      2.9071      2.9178      2.9312      2.9468      2.9637    
  2.9813      2.9990      3.0162      3.0324      3.0472      3.0606      3.0723      3.0823      3.0908      3.0979    
  3.1036      3.1079      3.1110      3.1129      3.1135      3.1130      3.1118      3.1100      3.1081      3.1066    
  3.1057      3.1057      3.1066      3.1081      3.1100      3.1118      3.1130      3.1135      3.1129      3.1110    
  3.1079      3.1036      3.0979      3.0908      3.0823      3.0723      3.0806      3.0723      3.0625      3.0516    
  3.0397      3.0270      3.0139      3.0009      2.9886      2.9774      2.9679      2.9608      2.9563      2.9548    
  2.9563      2.9608      2.9679      2.9774      2.9886      3.0009      3.0139      3.0270      3.0397      3.0516    
  3.0625      3.0723      3.0806      3.0877      3.0935      3.0980      3.1013      3.1036      3.1047      3.1047    
  3.1037      3.1018      3.0992      3.0962      3.0933      3.0908      3.0891      3.0885      3.0891      3.0908    
  3.0933      3.0962      3.0992      3.1018      3.1037      3.1047      3.1047      3.1036      3.1013      3.0980    
  3.0935      3.0877      3.0920      3.0877      3.0823      3.0758      3.0683      3.0599      3.0509      3.0415    
  3.0322      3.0233      3.0154      3.0089      3.0043      3.0019      3.0019      3.0043      3.0089      3.0154    
  3.0233      3.0322      3.0415      3.0509      3.0599      3.0683      3.0758      3.0823      3.0877      3.0920    
  3.0951      3.0971      3.0980      3.0979      3.0968      3.0947      3.0917      3.0880      3.0837      3.0791    
  3.0748      3.0710      3.0682      3.0667      3.0667      3.0682      3.0710      3.0748      3.0791      3.0837    
  3.0880      3.0917      3.0947      3.0968      3.0979      3.0980      3.0971      3.0951      3.0956      3.0951    
  3.0935      3.0908      3.0872      3.0826      3.0772      3.0711      3.0646      3.0580      3.0518      3.0462    
  3.0419      3.0391      3.0381      3.0391      3.0419      3.0462      3.0518      3.0580      3.0646      3.0711    
  3.0772      3.0826      3.0872      3.0908      3.0935      3.0951      3.0956      3.0951      3.0935      3.0908    
  3.0872      3.0826      3.0772      3.0711      3.0646      3.0580      3.0518      3.0462      3.0419      3.0391    
  3.0381      3.0391      3.0419      3.0462      3.0518      3.0580      3.0646      3.0711      3.0772      3.0826    
  3.0872      3.0908      3.0935      3.0951      3.0920      3.0951      3.0971      3.0980      3.0979      3.0968    
  3.0947      3.0917      3.0880      3.0837      3.0791      3.0748      3.0710      3.0682      3.0667      3.0667    
  3.0682      3.0710      3.0748      3.0791      3.0837      3.0880      3.0917      3.0947      3.0968      3.0979    
  3.0980      3.0971      3.0951      3.0920      3.0877      3.0823      3.0758      3.0683      3.0599      3.0509    
  3.0415      3.0322      3.0233      3.0154      3.0089      3.0043      3.0019      3.0019      3.0043      3.0089    
  3.0154      3.0233      3.0322      3.0415      3.0509      3.0599      3.0683      3.0758      3.0823      3.0877    
  3.0806      3.0877      3.0935      3.0980      3.1013      3.1036      3.1047      3.1047      3.1037      3.1018    
  3.0992      3.0962      3.0933      3.0908      3.0891      3.0885      3.0891      3.0908      3.0933      3.0962    
  3.0992      3.1018      3.1037      3.1047      3.1047      3.1036      3.1013      3.0980      3.0935      3.0877    
  3.0806      3.0723      3.0625      3.0516      3.0397      3.0270      3.0139      3.0009      2.9886      2.9774    
  2.9679      2.9608      2.9563      2.9548      2.9563      2.9608      2.9679      2.9774      2.9886      3.0009    
  3.0139      3.0270      3.0397      3.0516      3.0625      3.0723      3.0606      3.0723      3.0823      3.0908    
  3.0979      3.1036      3.1079      3.1110      3.1129      3.1135      3.1130      3.1118      3.1100      3.1081    
  3.1066      3.1057      3.1057      3.1066      3.1081      3.1100      3.1118      3.1130      3.1135      3.1129    
  3.1110      3.1079      3.1036      3.0979      3.0908      3.0823      3.0723      3.0606      3.0472      3.0324    
  3.0162      2.9990      2.9813      2.9637      2.9468      2.9312      2.9178      2.9071      2.8996      2.8957    
  2.8957      2.8996      2.9071      2.9178      2.9312      2.9468      2.9637      2.9813      2.9990      3.0162    
  3.0324      3.0472      3.0298      3.0472      3.0625      3.0758      3.0872      3.0968      3.1047      3.1110    
  3.1159      3.1192      3.1212      3.1219      3.1217      3.1209      3.1199      3.1192      3.1189      3.1192    
  3.1199      3.1209      3.1217      3.1219      3.1212      3.1192      3.1159      3.1110      3.1047      3.0968    
  3.0872      3.0758      3.0625      3.0472      3.0298      3.0104      2.9893      2.9668      2.9435      2.9202    
  2.8975      2.8765      2.8578      2.8423      2.8307      2.8235      2.8211      2.8235      2.8307      2.8423    
  2.8578      2.8765      2.8975      2.9202      2.9435      2.9668      2.9893      3.0104      2.9859      3.0104    
  3.0324      3.0516      3.0683      3.0826      3.0947      3.1047      3.1129      3.1192      3.1239      3.1270    
  3.1287      3.1294      3.1295      3.1293      3.1291      3.1291      3.1293      3.1295      3.1294      3.1287    
  3.1270      3.1239      3.1192      3.1129      3.1047      3.0947      3.0826      3.0683      3.0516      3.0324    
  3.0104      2.9859      2.9591      2.9304      2.9006      2.8704      2.8409      2.8130      2.7878      2.7662    
  2.7492      2.7375      2.7315      2.7315      2.7375      2.7492      2.7662      2.7878      2.8130      2.8409    
  2.8704      2.9006      2.9304      2.9591      2.9259      2.9591      2.9893      3.0162      3.0397      3.0599    
  3.0772      3.0917      3.1037      3.1135      3.1212      3.1270      3.1311      3.1337      3.1353      3.1360    
  3.1363      3.1364      3.1363      3.1360      3.1353      3.1337      3.1311      3.1270      3.1212      3.1135    
  3.1037      3.0917      3.0772      3.0599      3.0397      3.0162      2.9893      2.9591      2.9259      2.8902    
  2.8529      2.8148      2.7772      2.7413      2.7083      2.6795      2.6558      2.6382      2.6273      2.6237    
  2.6273      2.6382      2.6558      2.6795      2.7083      2.7413      2.7772      2.8148      2.8529      2.8902    
  2.8468      2.8902      2.9304      2.9668      2.9990      3.0270      3.0509      3.0711      3.0880      3.1018    
  3.1130      3.1219      3.1287      3.1337      3.1372      3.1395      3.1408      3.1414      3.1414      3.1408    
  3.1395      3.1372      3.1337      3.1287      3.1219      3.1130      3.1018      3.0880      3.0711      3.0509    
  3.0270      2.9990      2.9668      2.9304      2.8902      2.8468      2.8011      2.7542      2.7076      2.6626    
  2.6208      2.5835      2.5520      2.5274      2.5106      2.5020      2.5020      2.5106      2.5274      2.5520    
  2.5835      2.6208      2.6626      2.7076      2.7542      2.8011      2.7463      2.8011      2.8529      2.9006    
  2.9435      2.9813      3.0139      3.0415      3.0646      3.0837      3.0992      3.1118      3.1217      3.1294    
  3.1353      3.1395      3.1423      3.1438      3.1444      3.1438      3.1423      3.1395      3.1353      3.1294    
  3.1217      3.1118      3.0992      3.0837      3.0646      3.0415      3.0139      2.9813      2.9435      2.9006    
  2.8529      2.8011      2.7463      2.6899      2.6334      2.5786      2.5273      2.4809      2.4409      2.4085    
  2.3847      2.3701      2.3652      2.3701      2.3847      2.4085      2.4409      2.4809      2.5273      2.5786    
  2.6334      2.6899      2.6234      2.6899      2.7542      2.8148      2.8704      2.9202      2.9637      3.0009    
  3.0322      3.0580      3.0791      3.0962      3.1100      3.1209      3.1295      3.1360      3.1408      3.1438    
  3.1454      3.1454      3.1438      3.1408      3.1360      3.1295      3.1209      3.1100      3.0962      3.0791    
  3.0580      3.0322      3.0009      2.9637      2.9202      2.8704      2.8148      2.7542      2.6899      2.6234    
  2.5567      2.4918      2.4305      2.3746      2.3257      2.2851      2.2536      2.2323      2.2214      2.2214    
  2.2323      2.2536      2.2851      2.3257      2.3746      2.4305      2.4918      2.5567      2.4797      2.5567    
  2.6334      2.7076      2.7772      2.8409      2.8975      2.9468      2.9886      3.0233      3.0518      3.0748    
  3.0933      3.1081      3.1199      3.1293      3.1363      3.1414      3.1444      3.1454      3.1444      3.1414    
  3.1363      3.1293      3.1199      3.1081      3.0933      3.0748      3.0518      3.0233      2.9886      2.9468    
  2.8975      2.8409      2.7772      2.7076      2.6334      2.5567      2.4797      2.4045      2.3333      2.2680    
  2.2101      2.1610      2.1218      2.0932      2.0758      2.0700      2.0758      2.0932      2.1218      2.1610    
  2.2101      2.2680      2.3333      2.4045      2.3193      2.4045      2.4918      2.5786      2.6626      2.7413    
  2.8130      2.8765      2.9312      2.9774      3.0154      3.0462      3.0710      3.0908      3.1066      3.1192    
  3.1291      3.1364      3.1414      3.1438      3.1438      3.1414      3.1364      3.1291      3.1192      3.1066    
  3.0908      3.0710      3.0462      3.0154      2.9774      2.9312      2.8765      2.8130      2.7413      2.6626    
  2.5786      2.4918      2.4045      2.3193      2.2384      2.1639      2.0973      2.0400      1.9931      1.9573    
  1.9331      1.9209      1.9209      1.9331      1.9573      1.9931      2.0400      2.0973      2.1639      2.2384    
  2.1483      2.2384      2.3333      2.4305      2.5273      2.6208      2.7083      2.7878      2.8578      2.9178    
  2.9679      3.0089      3.0419      3.0682      3.0891      3.1057      3.1189      3.1291      3.1363      3.1408    
  3.1423      3.1408      3.1363      3.1291      3.1189      3.1057      3.0891      3.0682      3.0419      3.0089    
  2.9679      2.9178      2.8578      2.7878      2.7083      2.6208      2.5273      2.4305      2.3333      2.2384    
  2.1483      2.0650      1.9901      1.9252      1.8709      1.8282      1.7974      1.7788      1.7726      1.7788    
  1.7974      1.8282      1.8709      1.9252      1.9901      2.0650      1.9734      2.0650      2.1639      2.2680    
  2.3746      2.4809      2.5835      2.6795      2.7662      2.8423      2.9071      2.9608      3.0043      3.0391    
  3.0667      3.0885      3.1057      3.1192      3.1293      3.1360      3.1395      3.1395      3.1360      3.1293    
  3.1192      3.1057      3.0885      3.0667      3.0391      3.0043      2.9608      2.9071      2.8423      2.7662    
  2.6795      2.5835      2.4809      2.3746      2.2680      2.1639      2.0650      1.9734      1.8910      1.8189    
  1.7580      1.7089      1.6718      1.6471      1.6347      1.6347      1.6471      1.6718      1.7089      1.7580    
  1.8189      1.8910      1.8015      1.8910      1.9901      2.0973      2.2101      2.3257      2.4409      2.5520    
  2.6558      2.7492      2.8307      2.8996      2.9563      3.0019      3.0381      3.0667      3.0891      3.1066    
  3.1199      3.1295      3.1353      3.1372      3.1353      3.1295      3.1199      3.1066      3.0891      3.0667    
  3.0381      3.0019      2.9563      2.8996      2.8307      2.7492      2.6558      2.5520      2.4409      2.3257    
  2.2101      2.0973      1.9901      1.8910      1.8015      1.7229      1.6560      1.6012      1.5585      1.5281    
  1.5099      1.5038      1.5099      1.5281      1.5585      1.6012      1.6560      1.7229      1.6385      1.7229    
  1.8189      1.9252      2.0400      2.1610      2.2851      2.4085      2.5274      2.6382      2.7375      2.8235    
  2.8957      2.9548      3.0019      3.0391      3.0682      3.0908      3.1081      3.1209      3.1294      3.1337    
  3.1337      3.1294      3.1209      3.1081      3.0908      3.0682      3.0391      3.0019      2.9548      2.8957    
  2.8235      2.7375      2.6382      2.5274      2.4085      2.2851      2.1610      2.0400      1.9252      1.8189    