unknown system                          
   1.00000000000000     
     1.535534   -2.659623    0.000000
     1.535534    2.659623    0.000000
     0.000000    0.000000    3.529122
   Mg   B 
     1     2
Direct
  0.000000  0.000000  0.000000
  0.666667  0.333333  0.500000
  0.333333  0.666667  0.500000
 
   56   56   56
 0.90271414131E+00 0.90287524842E+00 0.90401054469E+00 0.90795019987E+00 0.91736261407E+00
 0.93529950965E+00 0.96475230435E+00 0.10083258168E+01 0.10680740478E+01 0.11454658158E+01
 0.12413901515E+01 0.13560996092E+01 0.14890306353E+01 0.16385183158E+01 0.18015071445E+01
 0.19734128609E+01 0.21482816113E+01 0.23193112342E+01 0.24796687365E+01 0.26234128808E+01
 0.27462969483E+01 0.28467894048E+01 0.29258982453E+01 0.29859332028E+01 0.30298329189E+01
 0.30605577965E+01 0.30806424224E+01 0.30919510978E+01 0.30955980919E+01 0.30919510978E+01
 0.30806424224E+01 0.30605577965E+01 0.30298329189E+01 0.29859332028E+01 0.29258982453E+01
 0.28467894048E+01 0.27462969483E+01 0.26234128808E+01 0.24796687365E+01 0.23193112342E+01
 0.21482816113E+01 0.19734128609E+01 0.18015071445E+01 0.16385183158E+01 0.14890306353E+01
 0.13560996092E+01 0.12413901515E+01 0.11454658158E+01 0.10680740478E+01 0.10083258168E+01
 0.96475230435E+00 0.93529950965E+00 0.91736261407E+00 0.90795019987E+00 0.90401054469E+00
 0.90287524842E+00 0.90287524842E+00 0.90287524203E+00 0.90352557319E+00 0.90607901399E+00
 0.91280313327E+00 0.92657469125E+00 0.95042273833E+00 0.98714030237E+00 0.10390421604E+01
 0.11078739808E+01 0.11948077962E+01 0.13004227587E+01 0.14245858247E+01 0.15662094422E+01
 0.17229482277E+01 0.18909689350E+01 0.20649521207E+01 0.22384373323E+01 0.24045122501E+01
 0.25567110621E+01 0.26898906595E+01 0.28010679710E+01 0.28902173816E+01 0.29591056780E+01
 0.30104404990E+01 0.30472305974E+01 0.30722511678E+01 0.30877030164E+01 0.30950636750E+01
 0.30950636746E+01 0.30877030155E+01 0.30722511672E+01 0.30472305980E+01 0.30104405014E+01
 0.29591056823E+01 0.28902173872E+01 0.28010679769E+01 0.26898906646E+01 0.25567110654E+01
 0.24045122513E+01 0.22384373312E+01 0.20649521176E+01 0.18909689303E+01 0.17229482216E+01
 0.15662094349E+01 0.14245858167E+01 0.13004227510E+01 0.11948077907E+01 0.11078739796E+01
 0.10390421657E+01 0.98714031561E+00 0.95042275938E+00 0.92657471808E+00 0.91280316202E+00
 0.90607903973E+00 0.90352559104E+00 0.90401054469E+00 0.90352557319E+00 0.90401052400E+00
 0.90607900264E+00 0.91145419845E+00 0.92265111744E+00 0.94255197193E+00 0.97399249104E+00
 0.10194568030E+01 0.10809203049E+01 0.11598079596E+01 0.12569825982E+01 0.13726690942E+01
 0.15062614786E+01 0.16560359421E+01 0.18188729617E+01 0.19901404370E+01 0.21638767090E+01
 0.23333289371E+01 0.24917732554E+01 0.26334231394E+01 0.27542185715E+01 0.28528533125E+01
 0.29304314992E+01 0.29892941471E+01 0.30323635776E+01 0.30625489326E+01 0.30823169615E+01
 0.30934667796E+01 0.30970663763E+01 0.30934667779E+01 0.30823169591E+01 0.30625489313E+01
 0.30323635788E+01 0.29892941517E+01 0.29304315069E+01 0.28528533220E+01 0.27542185808E+01
 0.26334231468E+01 0.24917732597E+01 0.23333289377E+01 0.21638767061E+01 0.19901404312E+01
 0.18188729532E+01 0.16560359311E+01 0.15062614656E+01 0.13726690803E+01 0.12569825858E+01
 0.11598079521E+01 0.10809203063E+01 0.10194568166E+01 0.97399251839E+00 0.94255201135E+00
 0.92265116398E+00 0.91145424454E+00 0.90607903973E+00 0.90795019987E+00 0.90607901399E+00
 0.90607900264E+00 0.90795016828E+00 0.91280311691E+00 0.92265111445E+00 0.94005636058E+00
 0.96773236092E+00 0.10082054459E+01 0.10635993536E+01 0.11355427717E+01 0.12251395249E+01
 0.13329130182E+01 0.14586552835E+01 0.16011710983E+01 0.17579861162E+01 0.19251513786E+01
 0.20972915920E+01 0.22679917379E+01 0.24305051118E+01 0.25786380627E+01 0.27075828720E+01
 0.28148028655E+01 0.29005843100E+01 0.29668020651E+01 0.30161726158E+01 0.30516309038E+01
 0.30758278663E+01 0.30908276754E+01 0.30979942635E+01 0.30979942620E+01 0.30908276716E+01
 0.30758278620E+01 0.30516309013E+01 0.30161726166E+01 0.29668020698E+01 0.29005843180E+01
 0.28148028750E+01 0.27075828810E+01 0.25786380695E+01 0.24305051154E+01 0.22679917381E+01
 0.20972915889E+01 0.19251513724E+01 0.17579861068E+01 0.16011710858E+01 0.14586552683E+01
 0.13329130021E+01 0.12251395111E+01 0.11355427645E+01 0.10635993576E+01 0.10082054644E+01
 0.96773239427E+00 0.94005640546E+00 0.92265116398E+00 0.91280316202E+00 0.91736261407E+00
 0.91280313327E+00 0.91145419845E+00 0.91280311691E+00 0.91736258520E+00 0.92657468325E+00
 0.94255197800E+00 0.96773236870E+00 0.10045425719E+01 0.10551459863E+01 0.11213010721E+01
 0.12042980245E+01 0.13049016615E+01 0.14232273963E+01 0.15585184688E+01 0.17088616956E+01
 0.18709478211E+01 0.20400177486E+01 0.22101115929E+01 0.23746498166E+01 0.25272529152E+01
 0.26626016772E+01 0.27772118147E+01 0.28704058075E+01 0.29435307158E+01 0.29990023904E+01
 0.30396821301E+01 0.30683211629E+01 0.30871848820E+01 0.30978820960E+01 0.31013468429E+01
 0.30978820928E+01 0.30871848768E+01 0.30683211574E+01 0.30396821263E+01 0.29990023896E+01
 0.29435307182E+01 0.28704058123E+01 0.27772118207E+01 0.26626016831E+01 0.25272529199E+01
 0.23746498197E+01 0.22101115943E+01 0.20400177479E+01 0.18709478179E+01 0.17088616892E+01
 0.15585184587E+01 0.14232273829E+01 0.13049016465E+01 0.12042980112E+01 0.11213010646E+01
 0.10551459884E+01 0.10045425860E+01 0.96773239427E+00 0.94255201135E+00 0.92657471808E+00
 0.93529950965E+00 0.92657469125E+00 0.92265111744E+00 0.92265111445E+00 0.92657468325E+00
 0.93529949925E+00 0.95042274997E+00 0.97399251303E+00 0.10082054649E+01 0.10551459949E+01
 0.11166092526E+01 0.11940011095E+01 0.12882645385E+01 0.13997665126E+01 0.15281023278E+01
 0.16718296705E+01 0.18282108609E+01 0.19930888573E+01 0.21610215602E+01 0.23257366053E+01
 0.24808600222E+01 0.26207601735E+01 0.27413074276E+01 0.28408582602E+01 0.29201790926E+01
 0.29813195865E+01 0.30269837653E+01 0.30599444766E+01 0.30826041692E+01 0.30967629964E+01
 0.31035692100E+01 0.31035692088E+01 0.30967629930E+01 0.30826041644E+01 0.30599444715E+01
 0.30269837609E+01 0.29813195832E+01 0.29201790907E+01 0.28408582596E+01 0.27413074282E+01
 0.26207601751E+01 0.24808600249E+01 0.23257366089E+01 0.21610215644E+01 0.19930888613E+01
 0.18282108634E+01 0.16718296701E+01 0.15281023234E+01 0.13997665040E+01 0.12882645268E+01
 0.11940010967E+01 0.11166092417E+01 0.10551459884E+01 0.10082054644E+01 0.97399251839E+00
 0.95042275938E+00 0.96475230435E+00 0.95042273833E+00 0.94255197193E+00 0.94005636058E+00
 0.94255197800E+00 0.95042274997E+00 0.96475232055E+00 0.98714033492E+00 0.10194568373E+01
 0.10635993775E+01 0.11213010818E+01 0.11940011097E+01 0.12827486927E+01 0.13880886321E+01
 0.15098838853E+01 0.16470707815E+01 0.17974007202E+01 0.19572733375E+01 0.21217819410E+01
 0.22850531035E+01 0.24408722524E+01 0.25834779142E+01 0.27083291426E+01 0.28129686343E+01
 0.28975412831E+01 0.29636947603E+01 0.30139116424E+01 0.30509176878E+01 0.30771929376E+01
 0.30946787539E+01 0.31046871097E+01 0.31079466162E+01 0.31046871094E+01 0.30946787530E+01
 0.30771929357E+01 0.30509176847E+01 0.30139116379E+01 0.29636947545E+01 0.28975412767E+01
 0.28129686283E+01 0.27083291381E+01 0.25834779123E+01 0.24408722537E+01 0.22850531083E+01
 0.21217819486E+01 0.19572733467E+01 0.17974007293E+01 0.16470707886E+01 0.15098838885E+01
 0.13880886302E+01 0.12827486851E+01 0.11940010967E+01 0.11213010646E+01 0.10635993576E+01
 0.10194568166E+01 0.98714031561E+00 0.10083258168E+01 0.98714030237E+00 0.97399249104E+00
 0.96773236092E+00 0.96773236870E+00 0.97399251303E+00 0.98714033492E+00 0.10083258547E+01
 0.10390422033E+01 0.10809203386E+01 0.11355427881E+01 0.12042980245E+01 0.12882645300E+01
 0.13880886250E+01 0.15038173950E+01 0.16346738340E+01 0.17788085680E+01 0.19331118166E+01
 0.20931952407E+01 0.22536335105E+01 0.24084858750E+01 0.25520185955E+01 0.26794622177E+01
 0.27877695692E+01 0.28764614731E+01 0.29467749668E+01 0.30009270921E+01 0.30415397391E+01
 0.30711181741E+01 0.30917015579E+01 0.31047234971E+01 0.31110411804E+01 0.31110411814E+01
 0.31047234998E+01 0.30917015610E+01 0.30711181761E+01 0.30415397385E+01 0.30009270882E+01
 0.29467749598E+01 0.28764614642E+01 0.27877695600E+01 0.26794622102E+01 0.25520185913E+01
 0.24084858753E+01 0.22536335157E+01 0.20931952505E+01 0.19331118298E+01 0.17788085829E+01
 0.16346738484E+01 0.15038174061E+01 0.13880886302E+01 0.12882645268E+01 0.12042980112E+01
 0.11355427645E+01 0.10809203063E+01 0.10390421657E+01 0.10680740478E+01 0.10390421604E+01
 0.10194568030E+01 0.10082054459E+01 0.10045425719E+01 0.10082054649E+01 0.10194568373E+01
 0.10390422033E+01 0.10680740916E+01 0.11078740169E+01 0.11598079778E+01 0.12251395228E+01
 0.13049016451E+01 0.13997664923E+01 0.15098838706E+01 0.16346738285E+01 0.17725942351E+01
 0.19209477115E+01 0.20758222888E+01 0.22322548051E+01 0.23846553132E+01 0.25274457942E+01
 0.26557798409E+01 0.27662403498E+01 0.28577841484E+01 0.29312482951E+01 0.29885588155E+01
 0.30321886388E+01 0.30646228707E+01 0.30879620733E+01 0.31037301457E+01 0.31128732595E+01
 0.31158732820E+01 0.31128732629E+01 0.31037301514E+01 0.30879620794E+01 0.30646228753E+01
 0.30321886402E+01 0.29885588131E+01 0.29312482892E+01 0.28577841399E+01 0.27662403406E+01
 0.26557798326E+01 0.25274457887E+01 0.23846553117E+01 0.22322548088E+01 0.20758222979E+01
 0.19209477259E+01 0.17725942535E+01 0.16346738484E+01 0.15098838885E+01 0.13997665040E+01
 0.13049016465E+01 0.12251395111E+01 0.11598079521E+01 0.11078739796E+01 0.11454658158E+01
 0.11078739808E+01 0.10809203049E+01 0.10635993536E+01 0.10551459863E+01 0.10551459949E+01
 0.10635993775E+01 0.10809203386E+01 0.11078740169E+01 0.11454658466E+01 0.11948078105E+01
 0.12569825919E+01 0.13329129950E+01 0.14232273660E+01 0.15281023015E+01 0.16470707665E+01
 0.17788085647E+01 0.19209477137E+01 0.20699947208E+01 0.22214356482E+01 0.23700752943E+01
 0.25105886843E+01 0.26381829474E+01 0.27492499611E+01 0.28423015200E+01 0.29178010638E+01
 0.29773742111E+01 0.30233100640E+01 0.30580333689E+01 0.30836743617E+01 0.31018251972E+01
 0.31134975505E+01 0.31192268063E+01 0.31192268079E+01 0.31134975549E+01 0.31018252034E+01
 0.30836743681E+01 0.30580333742E+01 0.30233100671E+01 0.29773742114E+01 0.29178010611E+01
 0.28423015149E+01 0.27492499544E+01 0.26381829400E+01 0.25105886776E+01 0.23700752900E+01
 0.22214356480E+01 0.20699947264E+01 0.19209477259E+01 0.17788085829E+01 0.16470707886E+01
 0.15281023234E+01 0.14232273829E+01 0.13329130021E+01 0.12569825858E+01 0.11948077907E+01
 0.12413901515E+01 0.11948077962E+01 0.11598079596E+01 0.11355427717E+01 0.11213010721E+01
 0.11166092526E+01 0.11213010818E+01 0.11355427881E+01 0.11598079778E+01 0.11948078105E+01
 0.12413901575E+01 0.13004227467E+01 0.13726690663E+01 0.14586552478E+01 0.15585184362E+01
 0.16718296503E+01 0.17974007155E+01 0.19331118234E+01 0.20758222986E+01 0.22214356536E+01
 0.23651680629E+01 0.25020156224E+01 0.26273461026E+01 0.27375045807E+01 0.28307006930E+01
 0.29070693369E+01 0.29679397612E+01 0.30153909862E+01 0.30517501567E+01 0.30791463543E+01
 0.30992227310E+01 0.31130463832E+01 0.31211865853E+01 0.31238804606E+01 0.31211865868E+01
 0.31130463861E+01 0.30992227349E+01 0.30791463588E+01 0.30517501613E+01 0.30153909905E+01
 0.29679397646E+01 0.29070693387E+01 0.28307006925E+01 0.27375045774E+01 0.26273460966E+01
 0.25020156145E+01 0.23651680549E+01 0.22214356480E+01 0.20758222979E+01 0.19331118298E+01
 0.17974007293E+01 0.16718296701E+01 0.15585184587E+01 0.14586552683E+01 0.13726690803E+01
 0.13004227510E+01 0.13560996092E+01 0.13004227587E+01 0.12569825982E+01 0.12251395249E+01
 0.12042980245E+01 0.11940011095E+01 0.11940011097E+01 0.12042980245E+01 0.12251395228E+01
 0.12569825919E+01 0.13004227467E+01 0.13560995915E+01 0.14245857950E+01 0.15062614431E+01
 0.16011710662E+01 0.17088616758E+01 0.18282108581E+01 0.19572733493E+01 0.20931952592E+01
 0.22322548206E+01 0.23700753016E+01 0.25020156232E+01 0.26236867158E+01 0.27315028379E+01
 0.28235144155E+01 0.28995884155E+01 0.29607728624E+01 0.30089180967E+01 0.30462179462E+01
 0.30747668362E+01 0.30962404640E+01 0.31117581262E+01 0.31219219854E+01 0.31269731365E+01
 0.31269731363E+01 0.31219219850E+01 0.31117581259E+01 0.30962404644E+01 0.30747668378E+01
 0.30462179495E+01 0.30089181016E+01 0.29607728683E+01 0.28995884211E+01 0.28235144193E+01
 0.27315028382E+01 0.26236867115E+01 0.25020156145E+01 0.23700752900E+01 0.22322548088E+01
 0.20931952505E+01 0.19572733467E+01 0.18282108634E+01 0.17088616892E+01 0.16011710858E+01
 0.15062614656E+01 0.14245858167E+01 0.14890306353E+01 0.14245858247E+01 0.13726690942E+01
 0.13329130182E+01 0.13049016615E+01 0.12882645385E+01 0.12827486927E+01 0.12882645300E+01
 0.13049016451E+01 0.13329129950E+01 0.13726690663E+01 0.14245857950E+01 0.14890306073E+01
 0.15662094122E+01 0.16560359167E+01 0.17579861024E+01 0.18709478232E+01 0.19930888743E+01
 0.21217819660E+01 0.22536335333E+01 0.23846553261E+01 0.25105886863E+01 0.26273460989E+01
 0.27315028349E+01 0.28210804120E+01 0.28957460391E+01 0.29562908490E+01 0.30043255694E+01
 0.30418767357E+01 0.30709661014E+01 0.30932769540E+01 0.31099761865E+01 0.31217081755E+01
 0.31287230003E+01 0.31310633575E+01 0.31287229988E+01 0.31217081729E+01 0.31099761835E+01
 0.30932769515E+01 0.30709661006E+01 0.30418767373E+01 0.30043255739E+01 0.29562908560E+01
 0.28957460471E+01 0.28210804188E+01 0.27315028382E+01 0.26273460966E+01 0.25105886776E+01
 0.23846553117E+01 0.22536335157E+01 0.21217819486E+01 0.19930888613E+01 0.18709478179E+01
 0.17579861068E+01 0.16560359311E+01 0.15662094349E+01 0.16385183158E+01 0.15662094422E+01
 0.15062614786E+01 0.14586552835E+01 0.14232273963E+01 0.13997665126E+01 0.13880886321E+01
 0.13880886250E+01 0.13997664923E+01 0.14232273660E+01 0.14586552478E+01 0.15062614431E+01
 0.15662094122E+01 0.16385182957E+01 0.17229482139E+01 0.18188729581E+01 0.19251513878E+01
 0.20400177700E+01 0.21610215886E+01 0.22850531298E+01 0.24084858907E+01 0.25274457964E+01
 0.26381829401E+01 0.27375045718E+01 0.28235144108E+01 0.28957460384E+01 0.29547653978E+01
 0.30019410657E+01 0.30391020603E+01 0.30681557772E+01 0.30907588969E+01 0.31081126202E+01
 0.31209127201E+01 0.31294378175E+01 0.31337198004E+01 0.31337197997E+01 0.31294378153E+01
 0.31209127167E+01 0.31081126161E+01 0.30907588931E+01 0.30681557748E+01 0.30391020604E+01
 0.30019410691E+01 0.29547654044E+01 0.28957460471E+01 0.28235144193E+01 0.27375045774E+01
 0.26381829400E+01 0.25274457887E+01 0.24084858753E+01 0.22850531083E+01 0.21610215644E+01
 0.20400177479E+01 0.19251513724E+01 0.18188729532E+01 0.17229482216E+01 0.18015071445E+01
 0.17229482277E+01 0.16560359421E+01 0.16011710983E+01 0.15585184688E+01 0.15281023278E+01
 0.15098838853E+01 0.15038173950E+01 0.15098838706E+01 0.15281023015E+01 0.15585184362E+01
 0.16011710662E+01 0.16560359167E+01 0.17229482139E+01 0.18015071443E+01 0.18909689429E+01
 0.19901404535E+01 0.20972916160E+01 0.22101116208E+01 0.23257366303E+01 0.24408722672E+01
 0.25520185963E+01 0.26557798302E+01 0.27492499471E+01 0.28307006835E+01 0.28995884130E+01
 0.29562908507E+01 0.30019410672E+01 0.30381473221E+01 0.30666608519E+01 0.30890692416E+01
 0.31065820065E+01 0.31199459297E+01 0.31294897073E+01 0.31352613971E+01 0.31371980209E+01
 0.31352613964E+01 0.31294897058E+01 0.31199459272E+01 0.31065820031E+01 0.30890692378E+01
 0.30666608488E+01 0.30381473210E+01 0.30019410691E+01 0.29562908560E+01 0.28995884211E+01
 0.28307006925E+01 0.27492499544E+01 0.26557798326E+01 0.25520185913E+01 0.24408722537E+01
 0.23257366089E+01 0.22101115943E+01 0.20972915889E+01 0.19901404312E+01 0.18909689303E+01
 0.19734128609E+01 0.18909689350E+01 0.18188729617E+01 0.17579861162E+01 0.17088616956E+01
 0.16718296705E+01 0.16470707815E+01 0.16346738340E+01 0.16346738285E+01 0.16470707665E+01
 0.16718296503E+01 0.17088616758E+01 0.17579861024E+01 0.18188729581E+01 0.18909689429E+01
 0.19734128791E+01 0.20649521423E+01 0.21638767324E+01 0.22679917611E+01 0.23746498358E+01
 0.24808600326E+01 0.25834779120E+01 0.26794622041E+01 0.27662403317E+01 0.28423015060E+01
 0.29070693320E+01 0.29607728649E+01 0.30043255737E+01 0.30391020624E+01 0.30666608519E+01
 0.30884742236E+01 0.31057218976E+01 0.31191861454E+01 0.31292576899E+01 0.31360321953E+01
 0.31394540886E+01 0.31394540887E+01 0.31360321955E+01 0.31292576897E+01 0.31191861444E+01
 0.31057218955E+01 0.30884742206E+01 0.30666608488E+01 0.30391020604E+01 0.30043255739E+01
 0.29607728683E+01 0.29070693387E+01 0.28423015149E+01 0.27662403406E+01 0.26794622102E+01
 0.25834779123E+01 0.24808600249E+01 0.23746498197E+01 0.22679917381E+01 0.21638767061E+01
 0.20649521176E+01 0.21482816113E+01 0.20649521207E+01 0.19901404370E+01 0.19251513786E+01
 0.18709478211E+01 0.18282108609E+01 0.17974007202E+01 0.17788085680E+01 0.17725942351E+01
 0.17788085647E+01 0.17974007155E+01 0.18282108581E+01 0.18709478232E+01 0.19251513878E+01
 0.19901404535E+01 0.20649521423E+01 0.21482816345E+01 0.22384373516E+01 0.23333289520E+01
 0.24305051215E+01 0.25272529179E+01 0.26207601670E+01 0.27083291268E+01 0.27877695488E+01
 0.28577841312E+01 0.29178010561E+01 0.29679397633E+01 0.30089181031E+01 0.30418767403E+01
 0.30681557778E+01 0.30890692400E+01 0.31057218965E+01 0.31189007079E+01 0.31290535501E+01
 0.31363460016E+01 0.31407682859E+01 0.31422535507E+01 0.31407682864E+01 0.31363460024E+01
 0.31290535508E+01 0.31189007079E+01 0.31057218955E+01 0.30890692378E+01 0.30681557748E+01
 0.30418767373E+01 0.30089181016E+01 0.29679397646E+01 0.29178010611E+01 0.28577841399E+01
 0.27877695600E+01 0.27083291381E+01 0.26207601751E+01 0.25272529199E+01 0.24305051154E+01
 0.23333289377E+01 0.22384373312E+01 0.23193112342E+01 0.22384373323E+01 0.21638767090E+01
 0.20972915920E+01 0.20400177486E+01 0.19930888573E+01 0.19572733375E+01 0.19331118166E+01
 0.19209477115E+01 0.19209477137E+01 0.19331118234E+01 0.19572733493E+01 0.19930888743E+01
 0.20400177700E+01 0.20972916160E+01 0.21638767324E+01 0.22384373516E+01 0.23193112463E+01
 0.24045122543E+01 0.24917732535E+01 0.25786380561E+01 0.26626016658E+01 0.27413074108E+01
 0.28129686140E+01 0.28764614550E+01 0.29312482855E+01 0.29773742122E+01 0.30153909940E+01
 0.30462179538E+01 0.30709661042E+01 0.30907588953E+01 0.31065820038E+01 0.31191861440E+01
 0.31290535500E+01 0.31364239901E+01 0.31413633481E+01 0.31438496648E+01 0.31438496650E+01
 0.31413633486E+01 0.31364239909E+01 0.31290535508E+01 0.31191861444E+01 0.31065820031E+01
 0.30907588931E+01 0.30709661006E+01 0.30462179495E+01 0.30153909905E+01 0.29773742114E+01
 0.29312482892E+01 0.28764614642E+01 0.28129686283E+01 0.27413074282E+01 0.26626016831E+01
 0.25786380695E+01 0.24917732597E+01 0.24045122513E+01 0.24796687365E+01 0.24045122501E+01
 0.23333289371E+01 0.22679917379E+01 0.22101115929E+01 0.21610215602E+01 0.21217819410E+01
 0.20931952407E+01 0.20758222888E+01 0.20699947208E+01 0.20758222986E+01 0.20931952592E+01
 0.21217819660E+01 0.21610215886E+01 0.22101116208E+01 0.22679917611E+01 0.23333289520E+01
 0.24045122543E+01 0.24796687295E+01 0.25567110487E+01 0.26334231238E+01 0.27075828561E+01
 0.27772117982E+01 0.28408582429E+01 0.28975412674E+01 0.29467749575E+01 0.29885588160E+01
 0.30233100728E+01 0.30517501674E+01 0.30747668426E+01 0.30932769544E+01 0.31081126172E+01
 0.31199459272E+01 0.31292576894E+01 0.31363460022E+01 0.31413633487E+01 0.31443671414E+01
 0.31453685491E+01 0.31443671413E+01 0.31413633486E+01 0.31363460024E+01 0.31292576897E+01
 0.31199459272E+01 0.31081126161E+01 0.30932769515E+01 0.30747668378E+01 0.30517501613E+01
 0.30233100671E+01 0.29885588131E+01 0.29467749598E+01 0.28975412767E+01 0.28408582596E+01
 0.27772118207E+01 0.27075828810E+01 0.26334231468E+01 0.25567110654E+01 0.26234128808E+01
 0.25567110621E+01 0.24917732554E+01 0.24305051118E+01 0.23746498166E+01 0.23257366053E+01
 0.22850531035E+01 0.22536335105E+01 0.22322548051E+01 0.22214356482E+01 0.22214356536E+01
 0.22322548206E+01 0.22536335333E+01 0.22850531298E+01 0.23257366303E+01 0.23746498358E+01
 0.24305051215E+01 0.24917732535E+01 0.25567110487E+01 0.26234128583E+01 0.26898906370E+01
 0.27542185529E+01 0.28148028513E+01 0.28704057960E+01 0.29201790830E+01 0.29636947547E+01
 0.30009270940E+01 0.30321886486E+01 0.30580333823E+01 0.30791463649E+01 0.30962404679E+01
 0.31099761848E+01 0.31209127169E+01 0.31294897058E+01 0.31360321959E+01 0.31407682873E+01
 0.31438496659E+01 0.31453685495E+01 0.31453685491E+01 0.31438496650E+01 0.31407682864E+01
 0.31360321955E+01 0.31294897058E+01 0.31209127167E+01 0.31099761835E+01 0.30962404644E+01
 0.30791463588E+01 0.30580333742E+01 0.30321886402E+01 0.30009270882E+01 0.29636947545E+01
 0.29201790907E+01 0.28704058123E+01 0.28148028750E+01 0.27542185808E+01 0.26898906646E+01
 0.27462969483E+01 0.26898906595E+01 0.26334231394E+01 0.25786380627E+01 0.25272529152E+01
 0.24808600222E+01 0.24408722524E+01 0.24084858750E+01 0.23846553132E+01 0.23700752943E+01
 0.23651680629E+01 0.23700753016E+01 0.23846553261E+01 0.24084858907E+01 0.24408722672E+01
 0.24808600326E+01 0.25272529179E+01 0.25786380561E+01 0.26334231238E+01 0.26898906370E+01
 0.27462969226E+01 0.28010679523E+01 0.28528533025E+01 0.29005843064E+01 0.29435307154E+01
 0.29813195881E+01 0.30139116478E+01 0.30415397501E+01 0.30646228856E+01 0.30836743752E+01
 0.30992227382E+01 0.31117581263E+01 0.31217081719E+01 0.31294378144E+01 0.31352613964E+01
 0.31394540898E+01 0.31422535522E+01 0.31438496659E+01 0.31443671414E+01 0.31438496648E+01
 0.31422535507E+01 0.31394540887E+01 0.31352613964E+01 0.31294378153E+01 0.31217081729E+01
 0.31117581259E+01 0.30992227349E+01 0.30836743681E+01 0.30646228753E+01 0.30415397385E+01
 0.30139116379E+01 0.29813195832E+01 0.29435307182E+01 0.29005843180E+01 0.28528533220E+01
 0.28010679769E+01 0.28467894048E+01 0.28010679710E+01 0.27542185715E+01 0.27075828720E+01
 0.26626016772E+01 0.26207601735E+01 0.25834779142E+01 0.25520185955E+01 0.25274457942E+01
 0.25105886843E+01 0.25020156224E+01 0.25020156232E+01 0.25105886863E+01 0.25274457964E+01
 0.25520185963E+01 0.25834779120E+01 0.26207601670E+01 0.26626016658E+01 0.27075828561E+01
 0.27542185529E+01 0.28010679523E+01 0.28467893891E+01 0.28902173774E+01 0.29304315047E+01
 0.29668020754E+01 0.29990024015E+01 0.30269837761E+01 0.30509177000E+01 0.30711181882E+01
 0.30879620867E+01 0.31018252055E+01 0.31130463841E+01 0.31219219810E+01 0.31287229950E+01
 0.31337197974E+01 0.31371980206E+01 0.31394540898E+01 0.31407682873E+01 0.31413633487E+01
 0.31413633481E+01 0.31407682859E+01 0.31394540886E+01 0.31371980209E+01 0.31337197997E+01
 0.31287229988E+01 0.31219219850E+01 0.31130463861E+01 0.31018252034E+01 0.30879620794E+01
 0.30711181761E+01 0.30509176847E+01 0.30269837609E+01 0.29990023896E+01 0.29668020698E+01
 0.29304315069E+01 0.28902173872E+01 0.29258982453E+01 0.28902173816E+01 0.28528533125E+01
 0.28148028655E+01 0.27772118147E+01 0.27413074276E+01 0.27083291426E+01 0.26794622177E+01
 0.26557798409E+01 0.26381829474E+01 0.26273461026E+01 0.26236867158E+01 0.26273460989E+01
 0.26381829401E+01 0.26557798302E+01 0.26794622041E+01 0.27083291268E+01 0.27413074108E+01
 0.27772117982E+01 0.28148028513E+01 0.28528533025E+01 0.28902173774E+01 0.29258982482E+01
 0.29591056922E+01 0.29892941675E+01 0.30161726360E+01 0.30396821463E+01 0.30599444890E+01
 0.30771929482E+01 0.30917015671E+01 0.31037301513E+01 0.31134975500E+01 0.31211865795E+01
 0.31269731289E+01 0.31310633519E+01 0.31337197974E+01 0.31352613964E+01 0.31360321959E+01
 0.31363460022E+01 0.31364239901E+01 0.31363460016E+01 0.31360321953E+01 0.31352613971E+01
 0.31337198004E+01 0.31310633575E+01 0.31269731363E+01 0.31211865868E+01 0.31134975549E+01
 0.31037301514E+01 0.30917015610E+01 0.30771929357E+01 0.30599444715E+01 0.30396821263E+01
 0.30161726166E+01 0.29892941517E+01 0.29591056823E+01 0.29859332028E+01 0.29591056780E+01
 0.29304314992E+01 0.29005843100E+01 0.28704058075E+01 0.28408582602E+01 0.28129686343E+01
 0.27877695692E+01 0.27662403498E+01 0.27492499611E+01 0.27375045807E+01 0.27315028379E+01
 0.27315028349E+01 0.27375045718E+01 0.27492499471E+01 0.27662403317E+01 0.27877695488E+01
 0.28129686140E+01 0.28408582429E+01 0.28704057960E+01 0.29005843064E+01 0.29304315047E+01
 0.29591056922E+01 0.29859332239E+01 0.30104405263E+01 0.30323636040E+01 0.30516309233E+01
 0.30683211737E+01 0.30826041736E+01 0.30946787551E+01 0.31047234960E+01 0.31128732551E+01
 0.31192267984E+01 0.31238804515E+01 0.31269731289E+01 0.31287229950E+01 0.31294378144E+01
 0.31294897058E+01 0.31292576894E+01 0.31290535500E+01 0.31290535501E+01 0.31292576899E+01
 0.31294897073E+01 0.31294378175E+01 0.31287230003E+01 0.31269731365E+01 0.31238804606E+01
 0.31192268079E+01 0.31128732629E+01 0.31047234998E+01 0.30946787530E+01 0.30826041644E+01
 0.30683211574E+01 0.30516309013E+01 0.30323635788E+01 0.30104405014E+01 0.30298329189E+01
 0.30104404990E+01 0.29892941471E+01 0.29668020651E+01 0.29435307158E+01 0.29201790926E+01
 0.28975412831E+01 0.28764614731E+01 0.28577841484E+01 0.28423015200E+01 0.28307006930E+01
 0.28235144155E+01 0.28210804120E+01 0.28235144108E+01 0.28307006835E+01 0.28423015060E+01
 0.28577841312E+01 0.28764614550E+01 0.28975412674E+01 0.29201790830E+01 0.29435307154E+01
 0.29668020754E+01 0.29892941675E+01 0.30104405263E+01 0.30298329486E+01 0.30472306249E+01
 0.30625489513E+01 0.30758278729E+01 0.30871848784E+01 0.30967629874E+01 0.31046870996E+01
 0.31110411705E+01 0.31158732721E+01 0.31192267984E+01 0.31211865795E+01 0.31219219810E+01
 0.31217081719E+01 0.31209127169E+01 0.31199459272E+01 0.31191861440E+01 0.31189007079E+01
 0.31191861454E+01 0.31199459297E+01 0.31209127201E+01 0.31217081755E+01 0.31219219854E+01
 0.31211865853E+01 0.31192268063E+01 0.31158732820E+01 0.31110411814E+01 0.31046871094E+01
 0.30967629930E+01 0.30871848768E+01 0.30758278620E+01 0.30625489313E+01 0.30472305980E+01
 0.30605577965E+01 0.30472305974E+01 0.30323635776E+01 0.30161726158E+01 0.29990023904E+01
 0.29813195865E+01 0.29636947603E+01 0.29467749668E+01 0.29312482951E+01 0.29178010638E+01
 0.29070693369E+01 0.28995884155E+01 0.28957460391E+01 0.28957460384E+01 0.28995884130E+01
 0.29070693320E+01 0.29178010561E+01 0.29312482855E+01 0.29467749575E+01 0.29636947547E+01
 0.29813195881E+01 0.29990024015E+01 0.30161726360E+01 0.30323636040E+01 0.30472306249E+01
 0.30605578194E+01 0.30722511806E+01 0.30823169610E+01 0.30908276629E+01 0.30978820772E+01
 0.31035691911E+01 0.31079466010E+01 0.31110411705E+01 0.31128732551E+01 0.31134975500E+01
 0.31130463841E+01 0.31117581263E+01 0.31099761848E+01 0.31081126172E+01 0.31065820038E+01
 0.31057218965E+01 0.31057218976E+01 0.31065820065E+01 0.31081126202E+01 0.31099761865E+01
 0.31117581262E+01 0.31130463832E+01 0.31134975505E+01 0.31128732595E+01 0.31110411804E+01
 0.31079466162E+01 0.31035692088E+01 0.30978820928E+01 0.30908276716E+01 0.30823169591E+01
 0.30722511672E+01 0.30806424224E+01 0.30722511678E+01 0.30625489326E+01 0.30516309038E+01
 0.30396821301E+01 0.30269837653E+01 0.30139116424E+01 0.30009270921E+01 0.29885588155E+01
 0.29773742111E+01 0.29679397612E+01 0.29607728624E+01 0.29562908490E+01 0.29547653978E+01
 0.29562908507E+01 0.29607728649E+01 0.29679397633E+01 0.29773742122E+01 0.29885588160E+01
 0.30009270940E+01 0.30139116478E+01 0.30269837761E+01 0.30396821463E+01 0.30516309233E+01
 0.30625489513E+01 0.30722511806E+01 0.30806424254E+01 0.30877030069E+01 0.30934667592E+01
 0.30979942376E+01 0.31013468186E+01 0.31035691911E+01 0.31046870996E+01 0.31047234960E+01
 0.31037301513E+01 0.31018252055E+01 0.30992227382E+01 0.30962404679E+01 0.30932769544E+01
 0.30907588953E+01 0.30890692400E+01 0.30884742236E+01 0.30890692416E+01 0.30907588969E+01
 0.30932769540E+01 0.30962404640E+01 0.30992227310E+01 0.31018251972E+01 0.31037301457E+01
 0.31047234971E+01 0.31046871097E+01 0.31035692100E+01 0.31013468429E+01 0.30979942620E+01
 0.30934667779E+01 0.30877030155E+01 0.30919510978E+01 0.30877030164E+01 0.30823169615E+01
 0.30758278663E+01 0.30683211629E+01 0.30599444766E+01 0.30509176878E+01 0.30415397391E+01
 0.30321886388E+01 0.30233100640E+01 0.30153909862E+01 0.30089180967E+01 0.30043255694E+01
 0.30019410657E+01 0.30019410672E+01 0.30043255737E+01 0.30089181031E+01 0.30153909940E+01
 0.30233100728E+01 0.30321886486E+01 0.30415397501E+01 0.30509177000E+01 0.30599444890E+01
 0.30683211737E+01 0.30758278729E+01 0.30823169610E+01 0.30877030069E+01 0.30919510793E+01
 0.30950636491E+01 0.30970663481E+01 0.30979942376E+01 0.30978820772E+01 0.30967629874E+01
 0.30946787551E+01 0.30917015671E+01 0.30879620867E+01 0.30836743752E+01 0.30791463649E+01
 0.30747668426E+01 0.30709661042E+01 0.30681557778E+01 0.30666608519E+01 0.30666608519E+01
 0.30681557772E+01 0.30709661014E+01 0.30747668362E+01 0.30791463543E+01 0.30836743617E+01
 0.30879620733E+01 0.30917015579E+01 0.30946787539E+01 0.30967629964E+01 0.30978820960E+01
 0.30979942635E+01 0.30970663763E+01 0.30950636746E+01 0.30955980919E+01 0.30950636750E+01
 0.30934667796E+01 0.30908276754E+01 0.30871848820E+01 0.30826041692E+01 0.30771929376E+01
 0.30711181741E+01 0.30646228707E+01 0.30580333689E+01 0.30517501567E+01 0.30462179462E+01
 0.30418767357E+01 0.30391020603E+01 0.30381473221E+01 0.30391020624E+01 0.30418767403E+01
 0.30462179538E+01 0.30517501674E+01 0.30580333823E+01 0.30646228856E+01 0.30711181882E+01
 0.30771929482E+01 0.30826041736E+01 0.30871848784E+01 0.30908276629E+01 0.30934667592E+01
 0.30950636491E+01 0.30955980641E+01 0.30950636491E+01 0.30934667592E+01 0.30908276629E+01
 0.30871848784E+01 0.30826041736E+01 0.30771929482E+01 0.30711181882E+01 0.30646228856E+01
 0.30580333823E+01 0.30517501674E+01 0.30462179538E+01 0.30418767403E+01 0.30391020624E+01
 0.30381473221E+01 0.30391020603E+01 0.30418767357E+01 0.30462179462E+01 0.30517501567E+01
 0.30580333689E+01 0.30646228707E+01 0.30711181741E+01 0.30771929376E+01 0.30826041692E+01
 0.30871848820E+01 0.30908276754E+01 0.30934667796E+01 0.30950636750E+01 0.30919510978E+01
 0.30950636746E+01 0.30970663763E+01 0.30979942635E+01 0.30978820960E+01 0.30967629964E+01