   3   3   0   0
  0.9608489E+01  0.3071069E-09  0.3071069E-09  0.3529122E-09  0.5000000E-15
  1.000000000000000E-004
  CAR 
 unknown system                          
     19.39059463     -8.41585598  301      5.28478739      1.00000000
     -8.416  0.0000E+00  0.0000E+00
     -8.323  0.0000E+00  0.0000E+00
     -8.230  0.0000E+00  0.0000E+00
     -8.138  0.0000E+00  0.0000E+00
     -8.045  0.0000E+00  0.0000E+00
     -7.952  0.0000E+00  0.0000E+00
     -7.860  0.0000E+00  0.0000E+00
     -7.767  0.0000E+00  0.0000E+00
     -7.674  0.0000E+00  0.0000E+00
     -7.582  0.0000E+00  0.0000E+00
     -7.489  0.0000E+00  0.0000E+00
     -7.396  0.2090E-13  0.1937E-14
     -7.304  0.7792E-07  0.7222E-08
     -7.211  0.4203E-03  0.3896E-04
     -7.118  0.1507E-01  0.1435E-02
     -7.026  0.8615E-01  0.9421E-02
     -6.933  0.9954E-01  0.1865E-01
     -6.840  0.1553E+00  0.3304E-01
     -6.747  0.2302E+00  0.5438E-01
     -6.655  0.8809E-01  0.6254E-01
     -6.562  0.2757E+00  0.8809E-01
     -6.469  0.2986E+00  0.1158E+00
     -6.377  0.1820E+00  0.1326E+00
     -6.284  0.3209E+00  0.1624E+00
     -6.191  0.2270E+00  0.1834E+00
     -6.099  0.3934E+00  0.2199E+00
     -6.006  0.3789E+00  0.2550E+00
     -5.913  0.3789E+00  0.2901E+00
     -5.821  0.4839E+00  0.3350E+00
     -5.728  0.1466E+00  0.3486E+00
     -5.635  0.6413E+00  0.4080E+00
     -5.543  0.5007E+00  0.4544E+00
     -5.450  0.4237E+00  0.4937E+00
     -5.357  0.4145E+00  0.5321E+00
     -5.264  0.4553E+00  0.5743E+00
     -5.172  0.3407E+00  0.6059E+00
     -5.079  0.3279E+00  0.6363E+00
     -4.986  0.7015E+00  0.7013E+00
     -4.894  0.3798E+00  0.7365E+00
     -4.801  0.3906E+00  0.7727E+00
     -4.708  0.5863E+00  0.8270E+00
     -4.616  0.3405E+00  0.8586E+00
     -4.523  0.4398E+00  0.8994E+00
     -4.430  0.4218E+00  0.9385E+00
     -4.338  0.3366E+00  0.9697E+00
     -4.245  0.4998E+00  0.1016E+01
     -4.152  0.6127E+00  0.1073E+01
     -4.060  0.4106E+00  0.1111E+01
     -3.967  0.4469E+00  0.1152E+01
     -3.874  0.5767E+00  0.1206E+01
     -3.781  0.3738E+00  0.1240E+01
     -3.689  0.4066E+00  0.1278E+01
     -3.596  0.2891E+00  0.1305E+01
     -3.503  0.3747E+00  0.1340E+01
     -3.411  0.7268E+00  0.1407E+01
     -3.318  0.5705E+00  0.1460E+01
     -3.225  0.6247E+00  0.1518E+01
     -3.133  0.4602E+00  0.1560E+01
     -3.040  0.4984E+00  0.1607E+01
     -2.947  0.4049E+00  0.1644E+01
     -2.855  0.2240E+00  0.1665E+01
     -2.762  0.3973E+00  0.1702E+01
     -2.669  0.5123E+00  0.1749E+01
     -2.577  0.5006E+00  0.1796E+01
     -2.484  0.5721E+00  0.1849E+01
     -2.391  0.3922E+00  0.1885E+01
     -2.298  0.2734E+00  0.1910E+01
     -2.206  0.4096E+00  0.1948E+01
     -2.113  0.1770E+00  0.1965E+01
     -2.020  0.4295E+00  0.2004E+01
     -1.928  0.6795E+00  0.2067E+01
     -1.835  0.3975E+00  0.2104E+01
     -1.742  0.6603E+00  0.2165E+01
     -1.650  0.2717E+00  0.2191E+01
     -1.557  0.6168E+00  0.2248E+01
     -1.464  0.6096E+00  0.2304E+01
     -1.372  0.6558E+00  0.2365E+01
     -1.279  0.5826E+00  0.2419E+01
     -1.186  0.7441E+00  0.2488E+01
     -1.093  0.5967E+00  0.2543E+01
     -1.001  0.4249E+00  0.2583E+01
     -0.908  0.6578E+00  0.2644E+01
     -0.815  0.8464E+00  0.2722E+01
     -0.723  0.5308E+00  0.2771E+01
     -0.630  0.6249E+00  0.2829E+01
     -0.537  0.2610E+00  0.2854E+01
     -0.445  0.7148E+00  0.2920E+01
     -0.352  0.7160E+00  0.2986E+01
     -0.259  0.6664E+00  0.3048E+01
     -0.167  0.6112E+00  0.3105E+01
     -0.074  0.6139E+00  0.3161E+01
      0.019  0.6742E+00  0.3224E+01
      0.111  0.7588E+00  0.3294E+01
      0.204  0.5256E+00  0.3343E+01
      0.297  0.8570E+00  0.3422E+01
      0.390  0.7676E+00  0.3494E+01
      0.482  0.7624E+00  0.3564E+01
      0.575  0.9916E+00  0.3656E+01
      0.668  0.4964E+00  0.3702E+01
      0.760  0.5069E+00  0.3749E+01
      0.853  0.5074E+00  0.3796E+01
      0.946  0.8348E+00  0.3874E+01
      1.038  0.1329E+01  0.3997E+01
      1.131  0.1050E+01  0.4094E+01
      1.224  0.6593E+00  0.4155E+01
      1.316  0.4879E+00  0.4200E+01
      1.409  0.8840E+00  0.4282E+01
      1.502  0.9701E+00  0.4372E+01
      1.594  0.9492E+00  0.4460E+01
      1.687  0.1146E+01  0.4566E+01
      1.780  0.5993E+00  0.4622E+01
      1.873  0.8695E+00  0.4703E+01
      1.965  0.1175E+01  0.4811E+01
      2.058  0.6886E+00  0.4875E+01
      2.151  0.8991E+00  0.4959E+01
      2.243  0.9190E+00  0.5044E+01
      2.336  0.1465E+01  0.5180E+01
      2.429  0.1344E+01  0.5304E+01
      2.521  0.1042E+01  0.5401E+01
      2.614  0.7842E+00  0.5473E+01
      2.707  0.6890E+00  0.5537E+01
      2.799  0.9253E+00  0.5623E+01
      2.892  0.1263E+01  0.5740E+01
      2.985  0.1224E+01  0.5854E+01
      3.077  0.9443E+00  0.5941E+01
      3.170  0.1420E+01  0.6073E+01
      3.263  0.1578E+01  0.6219E+01
      3.356  0.1287E+01  0.6338E+01
      3.448  0.1060E+01  0.6436E+01
      3.541  0.8888E+00  0.6519E+01
      3.634  0.9900E+00  0.6611E+01
      3.726  0.9499E+00  0.6699E+01
      3.819  0.1010E+01  0.6792E+01
      3.912  0.9133E+00  0.6877E+01
      4.004  0.8216E+00  0.6953E+01
      4.097  0.1162E+01  0.7061E+01
      4.190  0.9364E+00  0.7148E+01
      4.282  0.9444E+00  0.7235E+01
      4.375  0.7099E+00  0.7301E+01
      4.468  0.3185E+00  0.7330E+01
      4.560  0.1008E+01  0.7424E+01
      4.653  0.8791E+00  0.7505E+01
      4.746  0.1187E+01  0.7615E+01
      4.839  0.9177E+00  0.7700E+01
      4.931  0.6547E+00  0.7761E+01
      5.024  0.2995E+00  0.7789E+01
      5.117  0.5917E+00  0.7844E+01
      5.209  0.1071E+01  0.7943E+01
      5.302  0.7996E+00  0.8017E+01
      5.395  0.8038E+00  0.8092E+01
      5.487  0.4130E+00  0.8130E+01
      5.580  0.5215E+00  0.8178E+01
      5.673  0.7151E+00  0.8245E+01
      5.765  0.7354E+00  0.8313E+01
      5.858  0.3281E+00  0.8343E+01
      5.951  0.5425E+00  0.8393E+01
      6.043  0.3893E+00  0.8429E+01
      6.136  0.2258E+00  0.8450E+01
      6.229  0.1496E+00  0.8464E+01
      6.322  0.1892E+00  0.8482E+01
      6.414  0.3631E+00  0.8515E+01
      6.507  0.2923E+00  0.8543E+01
      6.600  0.4750E+00  0.8587E+01
      6.692  0.3672E+00  0.8621E+01
      6.785  0.6087E-01  0.8626E+01
      6.878  0.1514E+00  0.8640E+01
      6.970  0.4940E+00  0.8686E+01
      7.063  0.4272E+00  0.8726E+01
      7.156  0.3570E+00  0.8759E+01
      7.248  0.2032E+00  0.8778E+01
      7.341  0.2295E+00  0.8799E+01
      7.434  0.2940E+00  0.8826E+01
      7.527  0.3435E+00  0.8858E+01
      7.619  0.2011E+00  0.8877E+01
      7.712  0.3036E+00  0.8905E+01
      7.805  0.6835E+00  0.8968E+01
      7.897  0.6719E+00  0.9030E+01
      7.990  0.5258E+00  0.9079E+01
      8.083  0.3345E+00  0.9110E+01
      8.175  0.5345E+00  0.9160E+01
      8.268  0.2533E+00  0.9183E+01
      8.361  0.3493E+00  0.9215E+01
      8.453  0.2348E+00  0.9237E+01
      8.546  0.7132E+00  0.9303E+01
      8.639  0.5019E+00  0.9350E+01
      8.731  0.3148E+00  0.9379E+01
      8.824  0.1115E+00  0.9389E+01
      8.917  0.3952E+00  0.9426E+01
      9.010  0.9277E+00  0.9512E+01
      9.102  0.5139E+00  0.9560E+01
      9.195  0.1278E+00  0.9571E+01
      9.288  0.5605E+00  0.9623E+01
      9.380  0.4717E+00  0.9667E+01
      9.473  0.4236E+00  0.9706E+01
      9.566  0.3303E+00  0.9737E+01
      9.658  0.5908E+00  0.9792E+01
      9.751  0.6675E+00  0.9854E+01
      9.844  0.5862E+00  0.9908E+01
      9.936  0.7073E+00  0.9974E+01
     10.029  0.6922E+00  0.1004E+02
     10.122  0.3088E+00  0.1007E+02
     10.214  0.4491E+00  0.1011E+02
     10.307  0.6402E+00  0.1017E+02
     10.400  0.6217E+00  0.1022E+02
     10.493  0.9660E+00  0.1031E+02
     10.585  0.1274E+01  0.1043E+02
     10.678  0.6266E+00  0.1049E+02
     10.771  0.6208E+00  0.1055E+02
     10.863  0.9591E+00  0.1064E+02
     10.956  0.8188E+00  0.1071E+02
     11.049  0.1190E+01  0.1082E+02
     11.141  0.1210E+01  0.1094E+02
     11.234  0.1614E+01  0.1109E+02
     11.327  0.9705E+00  0.1117E+02
     11.419  0.1390E+01  0.1130E+02
     11.512  0.1464E+01  0.1144E+02
     11.605  0.1625E+01  0.1159E+02
     11.697  0.1434E+01  0.1172E+02
     11.790  0.1792E+01  0.1189E+02
     11.883  0.1030E+01  0.1198E+02
     11.976  0.1485E+01  0.1212E+02
     12.068  0.1481E+01  0.1226E+02
     12.161  0.1311E+01  0.1238E+02
     12.254  0.1094E+01  0.1248E+02
     12.346  0.1192E+01  0.1259E+02
     12.439  0.1021E+01  0.1269E+02
     12.532  0.1100E+01  0.1279E+02
     12.624  0.1020E+01  0.1288E+02
     12.717  0.1232E+01  0.1300E+02
     12.810  0.1534E+01  0.1314E+02
     12.902  0.1519E+01  0.1328E+02
     12.995  0.8124E+00  0.1336E+02
     13.088  0.8245E+00  0.1343E+02
     13.180  0.9609E+00  0.1352E+02
     13.273  0.1090E+01  0.1362E+02
     13.366  0.9182E+00  0.1371E+02
     13.459  0.1277E+01  0.1383E+02
     13.551  0.1300E+01  0.1395E+02
     13.644  0.1212E+01  0.1406E+02
     13.737  0.1159E+01  0.1417E+02
     13.829  0.1466E+01  0.1430E+02
     13.922  0.9739E+00  0.1439E+02
     14.015  0.1211E+01  0.1451E+02
     14.107  0.7603E+00  0.1458E+02
     14.200  0.8282E+00  0.1465E+02
     14.293  0.9419E+00  0.1474E+02
     14.385  0.1134E+01  0.1484E+02
     14.478  0.6127E+00  0.1490E+02
     14.571  0.1060E+01  0.1500E+02
     14.663  0.7212E+00  0.1507E+02
     14.756  0.7082E+00  0.1513E+02
     14.849  0.6488E+00  0.1519E+02
     14.942  0.8177E+00  0.1527E+02
     15.034  0.1062E+01  0.1537E+02
     15.127  0.6196E+00  0.1542E+02
     15.220  0.3180E+00  0.1545E+02
     15.312  0.6370E+00  0.1551E+02
     15.405  0.2685E+00  0.1554E+02
     15.498  0.3048E+00  0.1557E+02
     15.590  0.4085E+00  0.1560E+02
     15.683  0.2515E+00  0.1563E+02
     15.776  0.6388E-01  0.1563E+02
     15.868  0.1685E+00  0.1565E+02
     15.961  0.4163E+00  0.1569E+02
     16.054  0.5061E+00  0.1573E+02
     16.147  0.3084E+00  0.1576E+02
     16.239  0.2547E+00  0.1579E+02
     16.332  0.6850E+00  0.1585E+02
     16.425  0.2212E+00  0.1587E+02
     16.517  0.2501E+00  0.1589E+02
     16.610  0.1313E+00  0.1591E+02
     16.703  0.5956E-02  0.1591E+02
     16.795  0.1348E-05  0.1591E+02
     16.888  0.1584E-07  0.1591E+02
     16.981  0.3851E-03  0.1591E+02
     17.073  0.2160E-01  0.1591E+02
     17.166  0.1404E-01  0.1591E+02
     17.259  0.1242E+00  0.1592E+02
     17.351  0.1955E+00  0.1594E+02
     17.444  0.3156E+00  0.1597E+02
     17.537  0.2614E-01  0.1597E+02
     17.630  0.3487E-01  0.1597E+02
     17.722  0.1641E+00  0.1599E+02
     17.815  0.1025E-01  0.1599E+02
     17.908  0.1989E-05  0.1599E+02
     18.000  0.1832E-04  0.1599E+02
     18.093  0.1779E-01  0.1599E+02
     18.186  0.8183E-01  0.1600E+02
     18.278  0.4982E-02  0.1600E+02
     18.371  0.9350E-06  0.1600E+02
     18.464  0.2508E-12  0.1600E+02
     18.556  0.0000E+00  0.1600E+02
     18.649  0.0000E+00  0.1600E+02
     18.742  0.0000E+00  0.1600E+02
     18.834  0.0000E+00  0.1600E+02
     18.927  0.0000E+00  0.1600E+02
     19.020  0.0000E+00  0.1600E+02
     19.113  0.0000E+00  0.1600E+02
     19.205  0.0000E+00  0.1600E+02
     19.298  0.0000E+00  0.1600E+02
     19.391  0.0000E+00  0.1600E+02
