Automatically generated mesh
     162
Reciprocal lattice
    0.00000000000000    0.00000000000000    0.00000000000000             1
    0.06666666666667   -0.00000000000000    0.00000000000000             6
    0.13333333333333   -0.00000000000000    0.00000000000000             6
    0.20000000000000   -0.00000000000000    0.00000000000000             6
    0.26666666666667    0.00000000000000    0.00000000000000             6
    0.33333333333333   -0.00000000000000    0.00000000000000             6
    0.40000000000000   -0.00000000000000    0.00000000000000             6
    0.46666666666667   -0.00000000000000    0.00000000000000             6
    0.06666666666667    0.06666666666667    0.00000000000000             6
    0.13333333333333    0.06666666666667    0.00000000000000            12
    0.20000000000000    0.06666666666667    0.00000000000000            12
    0.26666666666667    0.06666666666667    0.00000000000000            12
    0.33333333333333    0.06666666666667    0.00000000000000            12
    0.40000000000000    0.06666666666667    0.00000000000000            12
    0.46666666666667    0.06666666666667    0.00000000000000             6
    0.13333333333333    0.13333333333333    0.00000000000000             6
    0.20000000000000    0.13333333333333    0.00000000000000            12
    0.26666666666667    0.13333333333333    0.00000000000000            12
    0.33333333333333    0.13333333333333    0.00000000000000            12
    0.40000000000000    0.13333333333333    0.00000000000000            12
    0.20000000000000    0.20000000000000    0.00000000000000             6
    0.26666666666667    0.20000000000000    0.00000000000000            12
    0.33333333333333    0.20000000000000    0.00000000000000            12
    0.40000000000000    0.20000000000000    0.00000000000000             6
    0.26666666666667    0.26666666666667    0.00000000000000             6
    0.33333333333333    0.26666666666667    0.00000000000000            12
    0.33333333333333    0.33333333333333    0.00000000000000             2
    0.00000000000000    0.00000000000000    0.09090909090909             2
    0.06666666666667   -0.00000000000000    0.09090909090909            12
    0.13333333333333   -0.00000000000000    0.09090909090909            12
    0.20000000000000   -0.00000000000000    0.09090909090909            12
    0.26666666666667    0.00000000000000    0.09090909090909            12
    0.33333333333333   -0.00000000000000    0.09090909090909            12
    0.40000000000000   -0.00000000000000    0.09090909090909            12
    0.46666666666667   -0.00000000000000    0.09090909090909            12
    0.06666666666667    0.06666666666667    0.09090909090909            12
    0.13333333333333    0.06666666666667    0.09090909090909            24
    0.20000000000000    0.06666666666667    0.09090909090909            24
    0.26666666666667    0.06666666666667    0.09090909090909            24
    0.33333333333333    0.06666666666667    0.09090909090909            24
    0.40000000000000    0.06666666666667    0.09090909090909            24
    0.46666666666667    0.06666666666667    0.09090909090909            12
    0.13333333333333    0.13333333333333    0.09090909090909            12
    0.20000000000000    0.13333333333333    0.09090909090909            24
    0.26666666666667    0.13333333333333    0.09090909090909            24
    0.33333333333333    0.13333333333333    0.09090909090909            24
    0.40000000000000    0.13333333333333    0.09090909090909            24
    0.20000000000000    0.20000000000000    0.09090909090909            12
    0.26666666666667    0.20000000000000    0.09090909090909            24
    0.33333333333333    0.20000000000000    0.09090909090909            24
    0.40000000000000    0.20000000000000    0.09090909090909            12
    0.26666666666667    0.26666666666667    0.09090909090909            12
    0.33333333333333    0.26666666666667    0.09090909090909            24
    0.33333333333333    0.33333333333333    0.09090909090909             4
    0.00000000000000    0.00000000000000    0.18181818181818             2
    0.06666666666667   -0.00000000000000    0.18181818181818            12
    0.13333333333333   -0.00000000000000    0.18181818181818            12
    0.20000000000000   -0.00000000000000    0.18181818181818            12
    0.26666666666667    0.00000000000000    0.18181818181818            12
    0.33333333333333   -0.00000000000000    0.18181818181818            12
    0.40000000000000   -0.00000000000000    0.18181818181818            12
    0.46666666666667   -0.00000000000000    0.18181818181818            12
    0.06666666666667    0.06666666666667    0.18181818181818            12
    0.13333333333333    0.06666666666667    0.18181818181818            24
    0.20000000000000    0.06666666666667    0.18181818181818            24
    0.26666666666667    0.06666666666667    0.18181818181818            24
    0.33333333333333    0.06666666666667    0.18181818181818            24
    0.40000000000000    0.06666666666667    0.18181818181818            24
    0.46666666666667    0.06666666666667    0.18181818181818            12
    0.13333333333333    0.13333333333333    0.18181818181818            12
    0.20000000000000    0.13333333333333    0.18181818181818            24
    0.26666666666667    0.13333333333333    0.18181818181818            24
    0.33333333333333    0.13333333333333    0.18181818181818            24
    0.40000000000000    0.13333333333333    0.18181818181818            24
    0.20000000000000    0.20000000000000    0.18181818181818            12
    0.26666666666667    0.20000000000000    0.18181818181818            24
    0.33333333333333    0.20000000000000    0.18181818181818            24
    0.40000000000000    0.20000000000000    0.18181818181818            12
    0.26666666666667    0.26666666666667    0.18181818181818            12
    0.33333333333333    0.26666666666667    0.18181818181818            24
    0.33333333333333    0.33333333333333    0.18181818181818             4
    0.00000000000000    0.00000000000000    0.27272727272727             2
    0.06666666666667   -0.00000000000000    0.27272727272727            12
    0.13333333333333   -0.00000000000000    0.27272727272727            12
    0.20000000000000   -0.00000000000000    0.27272727272727            12
    0.26666666666667    0.00000000000000    0.27272727272727            12
    0.33333333333333   -0.00000000000000    0.27272727272727            12
    0.40000000000000   -0.00000000000000    0.27272727272727            12
    0.46666666666667   -0.00000000000000    0.27272727272727            12
    0.06666666666667    0.06666666666667    0.27272727272727            12
    0.13333333333333    0.06666666666667    0.27272727272727            24
    0.20000000000000    0.06666666666667    0.27272727272727            24
    0.26666666666667    0.06666666666667    0.27272727272727            24
    0.33333333333333    0.06666666666667    0.27272727272727            24
    0.40000000000000    0.06666666666667    0.27272727272727            24
    0.46666666666667    0.06666666666667    0.27272727272727            12
    0.13333333333333    0.13333333333333    0.27272727272727            12
    0.20000000000000    0.13333333333333    0.27272727272727            24
    0.26666666666667    0.13333333333333    0.27272727272727            24
    0.33333333333333    0.13333333333333    0.27272727272727            24
    0.40000000000000    0.13333333333333    0.27272727272727            24
    0.20000000000000    0.20000000000000    0.27272727272727            12
    0.26666666666667    0.20000000000000    0.27272727272727            24
    0.33333333333333    0.20000000000000    0.27272727272727            24
    0.40000000000000    0.20000000000000    0.27272727272727            12
    0.26666666666667    0.26666666666667    0.27272727272727            12
    0.33333333333333    0.26666666666667    0.27272727272727            24
    0.33333333333333    0.33333333333333    0.27272727272727             4
    0.00000000000000    0.00000000000000    0.36363636363636             2
    0.06666666666667   -0.00000000000000    0.36363636363636            12
    0.13333333333333   -0.00000000000000    0.36363636363636            12
    0.20000000000000   -0.00000000000000    0.36363636363636            12
    0.26666666666667    0.00000000000000    0.36363636363636            12
    0.33333333333333   -0.00000000000000    0.36363636363636            12
    0.40000000000000   -0.00000000000000    0.36363636363636            12
    0.46666666666667   -0.00000000000000    0.36363636363636            12
    0.06666666666667    0.06666666666667    0.36363636363636            12
    0.13333333333333    0.06666666666667    0.36363636363636            24
    0.20000000000000    0.06666666666667    0.36363636363636            24
    0.26666666666667    0.06666666666667    0.36363636363636            24
    0.33333333333333    0.06666666666667    0.36363636363636            24
    0.40000000000000    0.06666666666667    0.36363636363636            24
    0.46666666666667    0.06666666666667    0.36363636363636            12
    0.13333333333333    0.13333333333333    0.36363636363636            12
    0.20000000000000    0.13333333333333    0.36363636363636            24
    0.26666666666667    0.13333333333333    0.36363636363636            24
    0.33333333333333    0.13333333333333    0.36363636363636            24
    0.40000000000000    0.13333333333333    0.36363636363636            24
    0.20000000000000    0.20000000000000    0.36363636363636            12
    0.26666666666667    0.20000000000000    0.36363636363636            24
    0.33333333333333    0.20000000000000    0.36363636363636            24
    0.40000000000000    0.20000000000000    0.36363636363636            12
    0.26666666666667    0.26666666666667    0.36363636363636            12
    0.33333333333333    0.26666666666667    0.36363636363636            24
    0.33333333333333    0.33333333333333    0.36363636363636             4
    0.00000000000000    0.00000000000000    0.45454545454545             2
    0.06666666666667   -0.00000000000000    0.45454545454545            12
    0.13333333333333   -0.00000000000000    0.45454545454545            12
    0.20000000000000   -0.00000000000000    0.45454545454545            12
    0.26666666666667    0.00000000000000    0.45454545454545            12
    0.33333333333333   -0.00000000000000    0.45454545454545            12
    0.40000000000000   -0.00000000000000    0.45454545454545            12
    0.46666666666667   -0.00000000000000    0.45454545454545            12
    0.06666666666667    0.06666666666667    0.45454545454545            12
    0.13333333333333    0.06666666666667    0.45454545454545            24
    0.20000000000000    0.06666666666667    0.45454545454545            24
    0.26666666666667    0.06666666666667    0.45454545454545            24
    0.33333333333333    0.06666666666667    0.45454545454545            24
    0.40000000000000    0.06666666666667    0.45454545454545            24
    0.46666666666667    0.06666666666667    0.45454545454545            12
    0.13333333333333    0.13333333333333    0.45454545454545            12
    0.20000000000000    0.13333333333333    0.45454545454545            24
    0.26666666666667    0.13333333333333    0.45454545454545            24
    0.33333333333333    0.13333333333333    0.45454545454545            24
    0.40000000000000    0.13333333333333    0.45454545454545            24
    0.20000000000000    0.20000000000000    0.45454545454545            12
    0.26666666666667    0.20000000000000    0.45454545454545            24
    0.33333333333333    0.20000000000000    0.45454545454545            24
    0.40000000000000    0.20000000000000    0.45454545454545            12
    0.26666666666667    0.26666666666667    0.45454545454545            12
    0.33333333333333    0.26666666666667    0.45454545454545            24
    0.33333333333333    0.33333333333333    0.45454545454545             4
