 running on   24 total cores
 distrk:  each k-point on   24 cores,    1 groups
 distr:  one band on   12 cores,    2 groups
 using from now: INCAR     
 vasp.5.4.1 24Jun15 (build Sep 20 2023 02:35:02) complex                        
  
 POSCAR found type information on POSCAR  Mg B 
 POSCAR found :  2 types and       3 ions
 scaLAPACK is switched off

 ----------------------------------------------------------------------------- 
|                                                                             |
|           W    W    AA    RRRRR   N    N  II  N    N   GGGG   !!!           |
|           W    W   A  A   R    R  NN   N  II  NN   N  G    G  !!!           |
|           W    W  A    A  R    R  N N  N  II  N N  N  G       !!!           |
|           W WW W  AAAAAA  RRRRR   N  N N  II  N  N N  G  GGG   !            |
|           WW  WW  A    A  R   R   N   NN  II  N   NN  G    G                |
|           W    W  A    A  R    R  N    N  II  N    N   GGGG   !!!           |
|                                                                             |
|      For optimal performance we recommend to set                            |
|        NCORE= 4 - approx SQRT( number of cores)                             |
|      NCORE specifies how many cores store one orbital (NPAR=cpu/NCORE).     |
|      This setting can  greatly improve the performance of VASP for DFT.     |
|      The default, NPAR=number of cores might be grossly inefficient         |
|      on modern multi-core architectures or massively parallel machines.     |
|      Do your own testing !!!!                                               |
|      Unfortunately you need to use the default for GW and RPA calculations. |
|      (for HF NCORE is supported but not extensively tested yet)             |
|                                                                             |
 ----------------------------------------------------------------------------- 

 LDA part: xc-table for Pade appr. of Perdew
 POSCAR, INCAR and KPOINTS ok, starting setup
 WARNING: small aliasing (wrap around) errors must be expected
 FFT: planning ...
 WAVECAR not read
 entering main loop
       N       E                     dE             d eps       ncg     rms          rms(c)
DAV:   1     0.144087582655E+02    0.14409E+02   -0.37252E+03  2720   0.944E+02
DAV:   2    -0.158670372941E+02   -0.30276E+02   -0.26973E+02  3440   0.163E+02
DAV:   3    -0.170444621019E+02   -0.11774E+01   -0.11669E+01  3456   0.287E+01
DAV:   4    -0.170508171240E+02   -0.63550E-02   -0.63441E-02  3036   0.229E+00
DAV:   5    -0.170508716889E+02   -0.54565E-04   -0.54561E-04  3408   0.214E-01    0.531E+00
DAV:   6    -0.155723407119E+02    0.14785E+01   -0.14298E+00  2972   0.867E+00    0.251E+00
DAV:   7    -0.153263272377E+02    0.24601E+00   -0.73058E-01  3280   0.622E+00    0.780E-01
DAV:   8    -0.153318076808E+02   -0.54804E-02   -0.86571E-02  2916   0.234E+00    0.392E-01
DAV:   9    -0.153224135294E+02    0.93942E-02   -0.15581E-02  2924   0.940E-01    0.515E-02
DAV:  10    -0.153224593097E+02   -0.45780E-04   -0.88353E-04  3388   0.231E-01    0.320E-02
DAV:  11    -0.153224452066E+02    0.14103E-04   -0.80028E-05  2884   0.706E-02    0.625E-03
DAV:  12    -0.153224429533E+02    0.22533E-05   -0.76193E-06  3052   0.217E-02    0.177E-03
DAV:  13    -0.153224428815E+02    0.71748E-07   -0.20216E-07  1728   0.438E-03
   1 F= -.15322443E+02 E0= -.15321855E+02  d E =-.153224E+02
 curvature:   0.00 expect dE= 0.000E+00 dE for cont linesearch  0.000E+00
 trial: gam= 0.00000 g(F)=  0.591E-52 g(S)=  0.557E-06 ort = 0.000E+00 (trialstep = 0.100E+01)
 search vector abs. value=  0.557E-06
 reached required accuracy - stopping structural energy minimisation
